1080
Lattice="23.811093924618767 0.0 0.0 -0.023450526224037205 23.913554841090203 0.0 -0.035142245890854476 -0.04868382555707782 23.71274312796418" Properties=species:S:1:pos:R:3:c_pe_at:R:1:forces:R:3 energy=0.0 pbc="T T T"
La       0.30860000       0.18338600       0.12240600      -7.86620000      -1.33557000      -0.53822100      -0.13319300
La       3.90738000       0.27476400       0.33671800      -7.93797000       1.71761000      -0.90854600      -0.60882900
La       0.14742700       3.97824000      23.79370000      -8.13245000      -0.17350100      -0.41878400       0.17890100
La       8.11215000       7.81237000       4.02420000      -8.06739000      -0.37377700       1.11661000       0.05354060
La       3.98423000       4.27730000      23.69930000      -7.98408000       0.42784600      -1.08876000       0.60855500
La       3.69758000       7.77985000       4.05840000      -7.95725000       0.51273600       0.19660300       0.65804400
La       7.90663000       3.90644000       4.19431000      -7.93421000       0.13225400      -0.71899900      -1.05525000
La       4.00654000       3.76283000       4.06239000      -7.87574000       0.33309500       0.72074000      -0.55277500
Mn       2.02236000       2.03378000       2.36942000      -7.49743000      -0.87003600      -0.08252820      -4.19365000
Mn       6.06197000       2.00594000       2.23442000      -7.75157000      -0.18735100      -0.76243600      -3.05515000
Mn       1.88576000       5.92330000       2.10362000      -7.52994000       1.84281000       0.48321500       0.01776550
Mn       5.99620000       5.85805000       2.22009000      -7.64020000      -0.27858000       0.37925900      -0.02322060
Mn       1.91033000       2.05332000       6.02452000      -7.40468000       0.80059000      -2.23793000       0.69805600
Mn       5.92146000       1.89064000       5.96846000      -7.50846000       0.95296600      -1.53306000      -0.86675700
Mn       2.09702000       5.85682000       6.08874000      -7.69207000      -1.35433000       1.07797000       0.84182900
Mn       5.83182000       5.97382000       5.98881000      -7.57010000       1.84387000      -0.27220900       1.24695000
O        2.30100000       1.83657000       0.26542400      -7.91928000      -0.22083200      -0.34078200       0.08800540
O        1.62889000      23.76130000       2.34705000      -8.18182000       0.43638300      -0.13144200      -0.05546270
O        8.04635000       2.07334000       1.54810000      -7.86233000       1.07261000       0.00491991       0.67647400
O        5.60507000       2.36717000       0.26119600      -7.97316000      -0.96991500       0.54450500      -0.86826700
O        6.03322000       0.13606400       1.47417000      -7.82415000      -0.39747300      -0.82762700       1.37870000
O        3.79362000       1.62567000       2.63345000      -8.12046000       1.75562000       0.42819300      -0.16398000
O        1.67582000       6.46890000      23.62130000      -7.82662000       1.93359000      -2.11364000       0.64652800
O        2.26430000       4.15007000       1.68394000      -7.87896000      -0.47943400      -0.81337900      -0.02513130
O        7.90097000       5.80661000       2.49734000      -7.99251000       0.70312600       0.02350530       0.30174400
O        6.20848000       5.69512000       0.16423500      -8.06255000       0.06205830      -0.01897170      -0.77754800
O        6.04392000       3.97105000       2.62351000      -8.13358000      -0.73752400      -0.96169800       0.11480300
O        3.94828000       5.95280000       1.82088000      -8.01134000       0.27567700       1.09826000      -0.02430740
O        1.77892000       2.23134000       4.12847000      -8.11973000      -0.53443500       0.76628500       1.16996000
O        1.72769000       7.79125000       5.72299000      -8.07718000       0.19808400      -0.04954620      -0.19941400
O       23.70110000       2.24872000       6.20561000      -7.94638000       0.77643700       0.49893100       1.09419000
O        6.49849000       1.47182000       3.86761000      -7.88503000      -0.05623350       0.53612300       1.51342000
O        6.10647000       8.00466000       6.33367000      -8.05617000       0.12587300       0.94589000      -0.04889740
O        3.93490000       1.37036000       5.68081000      -7.80813000      -0.44869100       2.27167000       0.20463500
O        2.49871000       5.52839000       4.26431000      -8.08196000      -0.28352400       0.02863820      -0.18989900
O        2.07525000       3.94983000       6.59941000      -8.05386000       0.91371000       0.29647700      -0.97075600
O       23.69120000       5.41496000       5.85427000      -7.93756000       0.03408600       0.37358900      -1.32729000
O        5.38755000       6.02338000       4.20456000      -7.96516000      -0.33632600       0.66249500      -0.61333400
O        5.85896000       3.77838000       5.68020000      -8.18211000      -0.36467700       0.13980400       0.26710600
O        4.10184000       6.03236000       6.70314000      -8.05737000      -0.87617700      -0.44803600      -0.70757300
La       0.08567160      -0.02323540       7.90156000      -7.98543000      -0.59049200       0.32819600       1.26863000
La       4.00266000      -0.10245300       7.87603000      -8.01204000       1.18145000       0.90731100      -0.16021900
La       0.16130700       3.97163000       7.91966000      -8.01752000      -0.67254100       0.34613100       0.62692400
La       7.75578000       7.64873000      12.14300000      -8.04901000       1.35891000       0.75565400      -0.48038900
La       4.08484000       3.84511000       7.83925000      -7.92767000      -0.01121710       0.39962500       0.93365300
La       3.98914000       7.80790000      11.70910000      -7.86858000      -0.86971300       0.39352100       1.73572000
La       7.92634000       3.64715000      11.96590000      -8.01456000      -0.75434500       0.34737700       0.15721400
La       3.75517000       3.83644000      11.50200000      -7.76472000       0.03479730      -0.25946700       2.21361000
Mn       1.96480000       1.81092000       9.88230000      -7.59680000      -0.46246200      -1.50821000       0.52647900
Mn       6.02412000       1.88761000       9.98963000      -7.63245000      -0.62026800       0.13595900      -0.90714100
Mn       1.95052000       5.89692000       9.68534000      -7.53992000       0.32560000      -0.04320150       1.15512000
Mn       6.06835000       5.78307000      10.08970000      -7.37690000      -1.17102000       0.67939800      -1.55056000
Mn       2.21671000       1.79395000      13.85900000      -7.70483000      -0.85226100       0.95621500       1.97732000
Mn       6.04978000       1.82826000      13.88520000      -7.73370000      -1.12099000       0.58289600       0.41774000
Mn       2.13100000       5.80947000      13.87070000      -7.76874000      -0.90085100       1.07680000       0.14882200
Mn       5.90003000       5.76503000      13.95980000      -7.71085000       1.81249000       0.14072500      -1.07354000
O        2.58828000       1.73069000       7.85780000      -7.85549000      -1.21706000      -0.13487900      -0.06056510
O        1.56631000      23.63650000      10.16310000      -7.99085000      -0.10544100       0.69479900       0.55037900
O        8.06175000       2.17755000      10.04870000      -8.04411000       0.71056300      -0.15056100      -0.52797800
O        6.01852000       2.45976000       8.02029000      -7.91280000      -0.53027100      -0.19786600       0.06673250
O        6.20707000       0.19855800       9.30627000      -7.94610000      -0.00180115      -1.53045000       0.97761100
O        3.81008000       1.24298000      10.37470000      -7.82116000       0.55443700       2.25080000      -1.60785000
O        1.37545000       6.18729000       7.91047000      -7.86569000       0.02557140      -0.57721600      -1.19546000
O        2.29046000       3.70448000       9.56276000      -8.05395000       0.45087400       1.28251000       0.08258090
O        7.87905000       5.63978000      10.47480000      -7.94922000       2.02409000      -0.58948200       0.40172700
O        6.42821000       5.73138000       7.94102000      -7.99260000      -0.98669700       0.07232040       0.69057500
O        5.73649000       3.75385000      10.33200000      -8.10649000      -0.08093920       0.12556800      -0.05658370
O        3.80608000       6.18696000       9.56190000      -8.13513000       1.45179000      -0.82497900       1.20077000
O        1.96187000       2.27455000      12.06790000      -8.04039000      -0.33595600       0.22226300      -0.88142100
O        2.03819000       7.86183000      13.62600000      -7.90224000      -0.49774500      -0.23849300      -0.59222500
O        0.41228000       2.39766000      14.34320000      -7.83339000      -0.64401500      -1.01865000      -0.67749400
O        6.24885000       1.43180000      11.92040000      -7.97560000       0.27465800      -0.40691600      -0.11381000
O        6.32873000       7.81562000      14.42160000      -7.87565000      -0.35598300       0.70355500      -0.46974900
O        4.11568000       1.36137000      13.76210000      -8.08537000      -0.75610900       0.00943835      -0.05107230
O        2.04564000       5.58517000      12.03550000      -7.95525000       0.96794800      -0.05206760      -1.19856000
O        2.40960000       4.04563000      14.30730000      -7.78780000       0.82724500      -0.81574700      -0.11883000
O        0.04666450       5.32765000      13.96450000      -7.80337000      -0.38931800       0.69155100      -1.32282000
O        5.80195000       6.47813000      11.93760000      -7.87661000      -0.61085600      -1.32226000       0.43911800
O        5.61003000       3.67956000      13.40080000      -7.96888000       0.36836000       0.28046200       0.10138200
O        4.09357000       6.15511000      13.94430000      -7.98700000      -0.85398000       0.19822700       0.71933000
La       0.31685200      -0.00953320      16.33030000      -7.79292000      -1.82190000      -0.05276790      -1.75508000
La       4.18281000       0.12065700      15.98540000      -8.10196000       1.38009000      -1.28827000       0.07316720
La       0.37337300       3.99616000      15.99830000      -8.09341000      -0.24663300      -0.74218900      -0.63104800
La       8.07511000       7.80105000      19.79750000      -8.11330000      -1.42105000       0.81411800       0.64501300
La       4.15619000       3.88781000      15.85820000      -8.03277000      -0.02044790       0.06765280      -0.11794000
La       4.20074000       7.83174000      19.48300000      -8.02737000      -0.28115900       0.39429500       0.90332000
La       7.61367000       3.85411000      19.90650000      -8.05342000       1.11140000      -0.32074600      -0.18769500
La       3.97979000       3.71415000      19.91110000      -7.95108000      -1.31051000       0.42035100      -0.26360600
Mn       2.10796000       1.86156000      17.98060000      -7.60439000      -1.56783000       0.89469000      -0.78106700
Mn       5.98524000       1.94566000      17.90510000      -7.58981000       0.14085300      -0.78137200       1.00581000
Mn       2.08443000       6.01221000      17.63800000      -7.58035000       0.12345300      -0.62979500       1.81470000
Mn       6.02684000       5.90643000      17.72040000      -7.63690000       0.27683900       0.40143900       0.65574200
Mn       2.08525000       1.99863000      21.77650000      -7.49614000      -0.50896800      -0.62675000       0.60803700
Mn       6.05191000       1.90201000      22.04420000      -7.64522000      -0.75442400      -0.63991800      -0.58044400
Mn       2.11295000       5.99408000      21.72200000      -7.90233000      -1.00501000       0.31516700       1.38058000
Mn       6.02015000       5.96511000      21.73920000      -7.56253000      -1.32886000      -1.11167000       0.10220400
O        2.51236000       1.62915000      15.98970000      -8.06402000      -0.81142600      -0.07096080       0.07680730
O        1.55732000      23.73230000      18.53170000      -8.03628000       0.45560000      -0.07378590      -0.63598400
O        7.96196000       2.30076000      17.75700000      -7.87142000       0.14376800      -0.29503000      -0.39921500
O        5.87420000       2.17691000      15.92570000      -7.96369000      -0.68167400       0.55118300      -0.25420200
O        6.33305000       0.05448530      17.58740000      -7.96622000      -0.88212500      -0.02191510       1.16673000
O        3.85541000       1.52661000      18.34460000      -8.16981000       2.33574000       0.19173500      -0.26678700
O        1.76938000       6.30754000      15.63540000      -7.93335000       1.02194000      -0.76517700       1.29538000
O        2.30457000       3.99184000      17.47280000      -8.03657000       0.48624100       0.82469500       0.16904600
O        7.81134000       5.42639000      18.17730000      -7.94846000       0.42322400       0.41942200      -1.06318000
O        6.07792000       5.37219000      15.84910000      -8.07408000       0.44865900      -0.49013000       0.68105700
O        5.58566000       3.83036000      18.33610000      -8.10632000       0.43207600      -0.36335900      -0.87231800
O        4.07915000       6.34601000      17.44270000      -8.14402000       0.40883100      -0.26447000       0.26494800
O        1.84231000       2.41154000      19.74440000      -7.98669000      -0.49947600       0.08353450       0.95239900
O        1.71827000       7.87164000      21.35330000      -7.96183000       0.80659100       0.26593600       0.10778100
O       23.79940000       1.92323000      22.17650000      -7.99957000       1.42585000      -0.09028590       0.99482700
O        6.48286000       1.64238000      20.10360000      -7.91967000      -0.21151100       0.23135200      -0.34336100
O        5.90514000       7.75463000      22.00760000      -8.02978000       0.88126000       1.90934000       0.51445800
O        4.09113000       1.79239000      21.30050000      -8.01418000      -0.05701380      -0.06058300       1.62630000
O        2.41159000       5.61718000      19.97820000      -7.92896000       0.43733400       0.15770400      -1.59131000
O        2.14802000       4.02621000      22.10110000      -8.14357000       0.27945000       0.82135500       0.41611700
O        0.10271800       5.80208000      21.68800000      -7.92324000       0.76553500      -0.41736000      -0.92740800
O        6.01296000       6.30364000      19.75110000      -7.83136000      -1.66530000      -0.01398420      -1.12245000
O        5.71104000       4.05355000      21.50750000      -8.13379000       0.47272200       0.41188000       0.40177900
O        3.96415000       6.34728000      22.16390000      -7.82897000       0.02579790      -1.35252000      -0.25863100
La       0.21378100       7.98395000      23.73540000      -7.99819000      -1.52270000       0.77904500       1.05488000
La       4.16906000       7.89339000       0.24144700      -7.93598000      -0.63432300       0.86291400      -0.61406200
La      23.75350000      11.81190000       0.24234500      -7.95490000       0.61263600       0.82897900       0.46604100
La       7.96457000      15.60270000       3.93930000      -7.82187000      -0.24094900       1.93308000       1.00917000
La       4.12182000      11.83550000       0.24203200      -8.02810000       0.02219100       0.47324500      -0.38682500
La       4.06319000      15.89100000       4.14548000      -7.99421000      -1.31166000      -1.19417000       0.51013900
La       7.89762000      11.88670000       4.24295000      -8.15551000       0.87955600      -1.58180000       0.08460600
La       3.98367000      11.84790000       4.18596000      -8.10778000      -0.84289500       0.43558800      -0.48905600
Mn       2.05607000       9.83470000       2.02343000      -7.62728000      -1.69812000       0.86525600       0.91441000
Mn       6.08879000       9.83541000       2.20379000      -7.50160000       0.09602960      -0.42181800       0.49646100
Mn       2.02445000      13.69760000       2.03320000      -7.72559000      -0.31014700       0.26176600       1.69027000
Mn       5.98110000      13.79840000       2.34539000      -7.94186000      -1.14223000      -0.01972050      -3.60600000
Mn       2.03789000       9.98456000       5.96798000      -7.68615000      -1.67144000      -0.05982970       1.07350000
Mn       5.94590000      10.00770000       6.10873000      -7.67459000       1.52705000      -1.86615000      -0.81151100
Mn       2.03024000      14.00830000       6.13757000      -7.76692000      -0.61989000      -1.18091000      -0.77052700
Mn       5.85318000      13.86200000       6.10939000      -7.56734000       0.43548900      -1.08149000      -0.49958200
O        2.14791000       9.49626000      23.73020000      -7.84901000       1.65141000      -0.54856000       0.76412100
O        1.84885000       7.90092000       2.61464000      -8.11382000      -0.52474400      -1.04095000      -0.90707200
O        8.07507000       9.98544000       1.68217000      -7.84798000       0.06528410      -0.46096800      -0.07802480
O        5.60072000       9.90263000      23.69710000      -8.00703000      -0.55119800       0.35307900       0.32764000
O        6.18253000       7.77582000       1.95857000      -8.10667000      -0.57087200       0.78447800       0.13486600
O        3.84946000       9.67633000       2.54512000      -8.10211000       1.34505000      -0.13949800      -0.35848300
O        1.62378000      13.67340000       0.10742600      -8.12912000      -0.70828400       0.88868200       0.48558500
O        2.26987000      11.77570000       1.73759000      -8.01427000       0.12199600       0.19479000       0.43580300
O        7.79828000      13.67980000       2.75959000      -7.83370000       0.45587800      -0.28489000      -0.83010000
O        6.30718000      13.47100000       0.34181400      -7.93378000      -0.14790100      -0.61686300       0.18657500
O        5.88529000      11.73720000       2.58818000      -7.96694000      -0.35389800       1.06277000      -0.69251100
O        4.07724000      13.96020000       1.81973000      -7.88863000       0.34256900      -0.03267450      -0.33768700
O        1.47689000      10.03210000       4.17820000      -7.88796000       0.14326100       0.52587600      -0.36130900
O        2.21292000      15.91720000       6.16885000      -8.05022000       0.28092800      -0.10915600      -0.08628630
O       23.63100000      10.31840000       6.34030000      -7.83259000       0.80369100      -0.44408700       0.64695200
O        6.66922000       9.75512000       4.24431000      -7.84744000      -1.34911000      -0.70506000      -0.37499900
O        5.55089000      15.69410000       6.21019000      -7.96107000       1.10622000       1.60120000      -0.20743100
O        3.87797000      10.03530000       5.59905000      -7.98102000       0.67465000      -0.91396100      -0.13286600
O        2.34359000      13.55840000       4.06196000      -7.86870000      -0.24176900       0.55807100       0.02868400
O        2.14533000      12.12320000       6.26525000      -7.70982000      -1.41153000      -1.50083000      -0.01079890
O       23.74400000      13.96430000       5.74348000      -7.80840000       0.21955200      -0.23058500       0.55781800
O        5.44213000      13.93080000       4.09395000      -8.08987000       0.43958800       0.19557200       1.13428000
O        6.15882000      11.85950000       5.84468000      -8.14539000      -1.36595000       1.36458000       0.70721900
O        3.91520000      13.67060000       6.54685000      -7.76951000       1.22600000       0.90250300      -0.73269700
La      23.58920000       8.02752000       7.89793000      -8.02922000       1.01121000      -0.31511000       0.22663700
La       4.48660000       7.95838000       8.08864000      -7.88367000      -1.75429000       0.22603400      -0.40371900
La       0.02825180      12.01220000       8.02341000      -7.99707000       0.91670100      -0.19145100      -0.77108700
La       7.69083000      15.92820000      11.78110000      -8.00578000      -0.14325100      -0.56932900       0.20801600
La       3.90791000      11.96180000       8.10963000      -8.13244000      -0.55170200       0.09436260      -0.14374800
La       3.84996000      15.79380000      11.76630000      -8.07295000      -0.36870300      -0.74213100       0.85970200
La       7.84974000      11.90380000      11.71470000      -8.02650000       0.88817900      -0.47088700       1.60791000
La       3.79954000      11.62680000      11.82540000      -8.15197000      -0.12722700       0.21353700       0.85883000
Mn       1.99734000       9.83328000       9.66132000      -7.59363000      -0.60451200      -0.63994500       2.97813000
Mn       6.12564000       9.94924000      10.07090000      -7.56335000      -1.37261000      -1.83456000      -0.92997800
Mn       1.93732000      13.90260000      10.04360000      -7.69773000       0.65373600       0.16489000      -1.44905000
Mn       5.92140000      13.83400000       9.92567000      -7.50822000      -0.38310400       1.29858000       0.91585600
Mn       2.03868000       9.81366000      14.03800000      -7.71179000       0.32049800       1.29530000      -3.09108000
Mn       6.07413000      10.19770000      13.94590000      -7.58054000      -0.26502000      -2.32568000      -1.90278000
Mn       1.90289000      13.76830000      13.87430000      -7.55342000       0.43156200       0.47278000      -0.28987500
Mn       6.01185000      13.74780000      13.82850000      -7.71571000       1.05612000       1.05756000      -0.17506700
O        2.45337000       9.80321000       7.92035000      -7.97606000       0.53486100      -0.30303700      -2.20013000
O        1.61476000       7.87213000       9.87689000      -7.80731000       0.56829900       0.26048500       0.64093000
O        8.00083000      10.35230000       9.69866000      -7.94286000      -0.04142340      -0.09255370      -0.11116500
O        5.51503000      10.12250000       7.99953000      -8.03841000       0.62444600       0.72538000       0.25861600
O        6.31300000       8.01470000       9.68356000      -8.11635000      -0.30568600       0.16660700       0.24084000
O        3.94917000       9.57021000      10.30510000      -7.98800000       0.17988300       0.49484600      -0.72443000
O        1.59667000      13.91170000       8.06259000      -7.87950000      -0.34380700       0.64427900       0.96516900
O        1.93414000      11.75710000       9.80766000      -8.07921000       0.49025300       0.48191300      -0.45246800
O        7.87393000      13.74560000      10.32470000      -8.16674000      -0.06165350      -0.19268000      -0.82035200
O        6.03053000      13.82460000       8.01431000      -7.95480000       1.45427000      -1.27548000       0.93206300
O        5.72216000      11.72750000      10.24040000      -8.18445000       0.32545800       1.08160000      -0.14975200
O        4.04447000      13.93080000       9.73337000      -8.07491000      -1.29353000      -0.02942250      -0.05913580
O        1.93310000      10.29350000      12.08100000      -7.83384000      -1.23394000      -1.06762000      -0.07535450
O        1.69039000      15.95520000      13.55200000      -7.89503000       0.41996800      -1.79899000       0.25549600
O       23.73620000       9.89563000      14.45660000      -7.78424000       1.46398000      -2.06187000      -1.96460000
O        6.31393000       9.53061000      11.95680000      -7.94953000      -0.06083010       0.53232900       1.22598000
O        6.11372000      15.86900000      13.98610000      -8.06421000       0.79881000      -0.51920400       1.01940000
O        4.02344000       9.83032000      13.77160000      -7.72192000       0.78489200      -0.42929400      -1.06869000
O        2.26870000      13.49640000      11.88190000      -8.01258000       0.23004600       0.39734300       1.14756000
O        2.07576000      11.87080000      14.20960000      -7.88383000      -0.06598100       0.28397700       0.21968700
O       23.57790000      13.58530000      13.54230000      -7.92654000       2.45602000       0.86956200      -0.15560800
O        5.62265000      14.20390000      11.91670000      -7.94938000       0.81833300       0.06527590      -0.39628800
O        5.85357000      11.98120000      13.28530000      -7.93675000      -0.37950900      -0.19500800      -0.30393800
O        4.08291000      13.90470000      14.37350000      -7.89091000       0.14018600       0.24334000      -1.07508000
La       0.24312500       7.94881000      15.97500000      -8.04396000      -1.88754000       0.40371500      -0.44864200
La       4.15674000       8.02685000      15.67650000      -8.07469000       0.76884500       0.19784600      -0.41548000
La      23.61410000      11.68390000      15.52270000      -7.96168000       0.74110000       2.41102000       2.15979000
La       7.82305000      15.84060000      19.89350000      -8.01763000       0.12306600       1.01326000       0.25583500
La       4.00030000      12.15910000      15.86750000      -8.14646000      -0.55620900      -1.16464000       0.41248900
La       3.72880000      15.66960000      20.06210000      -7.93191000       0.56562600      -0.05789060       0.04037090
La       7.84969000      12.17430000      19.91860000      -7.86454000      -0.41180900      -2.17796000      -0.33662600
La       3.70720000      11.65780000      19.74930000      -8.00262000       2.19093000       1.52726000       0.52437500
Mn       2.07041000       9.91577000      17.82190000      -7.57609000      -0.06037110      -0.20424600      -3.96723000
Mn       6.05192000      10.18730000      17.71170000      -7.77455000       1.11297000      -2.42955000       0.41594400
Mn       1.97124000      13.91580000      17.95480000      -7.55012000       2.40163000      -0.20770700      -1.48554000
Mn       5.99569000      14.02240000      17.88860000      -7.61256000      -0.89620200      -1.00069000      -0.81695100
Mn       2.10105000       9.84381000      21.67110000      -7.56141000       0.50613300      -0.25490500       0.93176300
Mn       5.93006000       9.82881000      21.61680000      -7.86033000       1.00702000      -0.36237400       1.15863000
Mn       1.92271000      13.65420000      22.02440000      -7.73263000       2.33229000       0.91674200      -2.13474000
Mn       5.95887000      13.76250000      21.91380000      -7.64919000      -1.65224000      -0.11535300      -0.00926584
O        2.50267000       9.77238000      15.78220000      -8.02300000      -0.17438300      -0.66440900       2.50403000
O        1.80293000       7.95968000      17.92250000      -8.04638000       0.58843300      -0.20127300       0.63370500
O        8.01296000      10.43910000      17.52320000      -7.84937000      -0.60094600      -0.36420200       0.09360000
O        5.72497000      10.41070000      15.65790000      -7.91661000      -0.03888910       0.03889950       1.91361000
O        6.35775000       8.10066000      17.54050000      -7.96345000      -0.34434900       0.26214000      -0.45197600
O        4.15980000       9.84234000      18.08960000      -8.01640000      -0.64541800      -0.42996600      -0.68192400
O        1.98476000      14.20810000      15.78870000      -7.80983000      -1.33932000      -0.09134570      -0.37953900
O        2.17714000      11.93810000      17.81810000      -7.86890000       0.43655100       0.54539000      -0.84938500
O        7.95203000      13.95050000      18.37560000      -8.15716000       0.54978500      -0.62510000      -1.03250000
O        6.53205000      13.55250000      15.72010000      -7.87812000      -1.19289000       1.27677000       0.11715000
O        5.76540000      11.99690000      17.85580000      -7.98561000      -0.11977700       1.69620000       0.88529400
O        4.01249000      14.07850000      17.31730000      -8.02931000       0.17741800       0.12751700       1.49835000
O        1.92552000      10.22410000      19.51610000      -7.90129000      -1.89120000      -0.24900900       4.20885000
O        1.75244000      15.77810000      21.78590000      -7.92835000       0.56622100      -0.09848220       0.64753800
O        0.10959600       9.99343000      22.29620000      -8.00580000      -1.48777000       0.96765800      -0.92505700
O        6.25626000       9.70904000      19.75110000      -7.78979000       1.25147000      -0.37195400       0.26610900
O        6.08493000      15.65780000      22.19660000      -7.92507000      -0.08217140       1.36670000       0.02676520
O        4.17735000       9.56109000      21.15830000      -7.82382000      -1.93720000      -0.01276410       0.20701800
O        2.28201000      13.80890000      20.06390000      -7.96586000       0.58339000      -0.45447600      -0.50894000
O        2.62817000      11.78730000      22.13160000      -7.92903000      -0.90627100      -0.58236100      -0.99726500
O        0.18567800      13.40410000      21.40490000      -7.95203000      -1.52252000      -0.58442500       0.29292500
O        5.65117000      14.18490000      19.84950000      -7.88433000      -0.01329750       0.41737700       0.06342050
O        5.65027000      11.74990000      21.28460000      -7.94929000       1.15129000       1.47497000       1.01536000
O        3.94786000      14.09410000      22.31610000      -7.91141000      -0.23507600      -0.04250510       0.00633461
La       0.27506600      15.90240000       0.19521900      -8.07941000      -1.17511000      -0.58736000      -0.09778270
La       3.97957000      15.87010000       0.15712400      -7.96336000       1.61432000      -0.52269900       0.53894000
La       0.17663400      19.91470000       0.22808700      -8.09471000      -1.00197000      -0.04897390      -0.86011500
La       8.05679000      23.54750000       3.97567000      -7.89622000      -0.97227500       2.52446000       0.14495400