40
Lattice="8.015858 0.078896 -0.037165 0.078734 7.898291 -0.025079 -0.037977 -0.026149 8.180254" Properties=species:S:1:pos:R:3:Z:I:1:Masses:R:1:dft_forces:R:3 dft_energy=-41638.21194629 config_type=crystal pbc="T T T"
O        2.26119437       1.55267751       0.17470736        8      15.99900000      -0.08503000       0.16281000       0.13549000
O        1.73189982      -0.00323334       2.49797578        8      15.99900000       0.08211000       0.00035000      -0.20913000
O        7.93797713       2.34881782       1.59697326        8      15.99900000       0.09848000      -0.13166000       0.13793000
O        5.55129444       2.26652168       0.18973783        8      15.99900000       0.18436000      -0.13396000      -0.11052000
O        6.34632214       0.05563490       1.66655590        8      15.99900000      -0.15715000       0.04142000       0.00307000
O        4.14588785       1.70572230       2.50647530        8      15.99900000      -0.20000000       0.13213000      -0.25269000
O        1.64363636       6.19754394       0.16214101        8      15.99900000       0.19772000      -0.17150000       0.02416000
O        2.33610705       3.97887737       1.64266232        8      15.99900000      -0.16007000       0.00015000       0.09439000
O        7.96424146       5.71036610       2.47974402        8      15.99900000       0.08471000       0.11227000      -0.29413000
O        6.37939801       5.55459087       0.16021514        8      15.99900000      -0.20335000       0.13939000      -0.05806000
O        5.73755093       3.99891319       2.43689260        8      15.99900000       0.07861000      -0.04105000      -0.11754000
O        4.19835764       6.24248079       1.59863367        8      15.99900000      -0.18522000      -0.10984000       0.17637000
O        1.80681261       2.42297445       3.96592254        8      15.99900000       0.00712000      -0.16243000      -0.27008000
O        1.80113535       7.89533833       5.79040298        8      15.99900000       0.00142000      -0.03368000      -0.03361000
O       -0.02227202       2.23071973       6.52427713        8      15.99900000       0.01615000      -0.06092000      -0.13376000
O        6.53257050       1.78801841       3.91371891        8      15.99900000      -0.26169000       0.13387000      -0.02197000
O        6.37285149       7.94373686       6.46671242        8      15.99900000      -0.11056000       0.03073000      -0.09844000
O        4.05231006       1.71878333       5.79659855        8      15.99900000      -0.12922000       0.06075000       0.01862000
O        2.50311275       5.67640702       3.95340164        8      15.99900000      -0.27554000       0.17209000      -0.15915000
O        2.30762867       3.95245566       6.50539373        8      15.99900000      -0.07935000       0.03412000      -0.08141000
O        0.00346161       5.62359020       5.80103071        8      15.99900000       0.02088000       0.09313000       0.01506000
O        5.78320899       6.39824817       3.91817072        8      15.99900000       0.12462000      -0.13815000      -0.07536000
O        5.75177847       3.98294531       5.79191928        8      15.99900000       0.03210000      -0.03035000      -0.01716000
O        4.10531046       6.22420390       6.49475779        8      15.99900000      -0.13204000      -0.09213000      -0.12854000
Mn       2.03400351       1.98782600       2.07031086       25      54.93804400       0.18162000      -0.00938000       0.24680000
Mn       6.04193259       2.02728189       2.05172833       25      54.93804400       0.20468000       0.00709000       0.23020000
Mn       2.07337059       5.93697939       2.05777133       25      54.93804400       0.20517000       0.00728000       0.24205000
Mn       6.08129951       5.97641950       2.03918886       25      54.93804400       0.20891000      -0.01049000       0.23745000
Mn       2.01501497       1.97475147       6.16044604       25      54.93804400       0.13181000      -0.00301000       0.24115000
Mn       6.02294401       2.01419950       6.14185536       25      54.93804400       0.15088000       0.00233000       0.24080000
Mn       2.05438209       5.92390489       6.14789833       25      54.93804400       0.13476000       0.00039000       0.26063000
Mn       6.06231101       5.96334499       6.12931586       25      54.93804400       0.14554000      -0.00387000       0.21775000
La       0.14120091       0.20503859       0.05274511       57     138.90547000      -0.25767000       0.13281000      -0.17579000
La       4.23734046       0.16333820       0.04181400       57     138.90547000       0.10402000       0.06620000      -0.18144000
La       0.27079798       4.06605594       0.03110055       57     138.90547000       0.10872000      -0.00176000      -0.17919000
La       7.96835292       7.73484065       4.04467732       57     138.90547000      -0.00157000      -0.09435000       0.09282000
La       4.19423809       4.21799826       0.03370043       57     138.90547000      -0.07636000       0.09461000      -0.20786000
La       3.87593502       7.80788697       4.08444221       57     138.90547000      -0.18696000       0.00186000       0.06418000
La       7.84654055       3.89120992       4.06165082       57     138.90547000      -0.18216000      -0.06516000       0.06627000
La       3.92680607       3.77061337       4.08788479       57     138.90547000       0.17955000      -0.13208000       0.06063000
40
Lattice="7.678352 -0.164276 0.001015 -0.164397 7.678221 0.001719 -0.001042 -0.001639 7.301808" Properties=species:S:1:pos:R:3:Z:I:1:Masses:R:1:dft_forces:R:3 dft_energy=-41634.20883209 config_type=crystal pbc="T T T"
O        2.14625361       1.44246693       0.03711574        8      15.99900000      -0.27313000       0.84542000      -0.01227000
O        1.92511890       0.03744205       2.15015840        8      15.99900000      -0.06795000      -0.34877000       0.06228000
O        7.57687270       1.76783240       1.57565813        8      15.99900000       0.32688000       0.05830000      -0.08134000
O        5.30125775       2.04456146       0.03768467        8      15.99900000       0.83644000      -0.26382000      -0.01269000
O        5.79109328      -0.20336764       1.57478376        8      15.99900000       0.04758000       0.34775000      -0.07971000
O        3.89629394       1.82321500       2.15065833        8      15.99900000      -0.36071000      -0.05872000       0.06526000
O        1.37992882       5.96583201       0.03804398        8      15.99900000       0.83634000      -0.26411000      -0.01302000
O        1.86971861       3.71788853       1.57514306        8      15.99900000       0.04772000       0.34738000      -0.07938000
O        7.65327912       5.58018734       2.15200343        8      15.99900000      -0.36141000      -0.05882000       0.06512000
O        5.90324613       5.19945446       0.03849735        8      15.99900000      -0.27314000       0.84508000      -0.01281000
O        5.68209607       3.79442991       2.15150350        8      15.99900000      -0.06778000      -0.34921000       0.06292000
O        3.65551339       5.68908825       1.57601743        8      15.99900000       0.32722000       0.05817000      -0.08119000
O        1.64860760       2.31283245       3.68817842        8      15.99900000       0.25258000      -0.84585000      -0.01374000
O        1.76029892       7.71494944       5.22694621        8      15.99900000      -0.06798000      -0.34826000      -0.08036000
O       -0.10208978       1.93114452       5.80108293        8      15.99900000       0.32732000       0.05821000       0.06393000
O        6.17193994       1.54646993       3.68862448        8      15.99900000      -0.85713000       0.26322000      -0.01364000
O        5.62606991       7.47391277       5.80324194        8      15.99900000       0.04771000       0.34749000       0.06282000
O        3.89586241       1.82253987       5.22604843        8      15.99900000      -0.36098000      -0.05873000      -0.08245000
O        2.25052721       5.46771157       3.68897648        8      15.99900000      -0.85709000       0.26345000      -0.01337000
O        1.86909257       3.71693260       5.80186763        8      15.99900000       0.04772000       0.34784000       0.06305000
O       -0.02548856       5.74376484       5.22640773        8      15.99900000      -0.36202000      -0.05859000      -0.08242000
O        5.40554687       6.06979810       3.68950890        8      15.99900000       0.25291000      -0.84594000      -0.01313000
O        5.68168077       3.79371614       5.22659422        8      15.99900000      -0.06797000      -0.34857000      -0.08022000
O        3.65488756       5.68812471       5.80241342        8      15.99900000       0.32746000       0.05809000       0.06408000
Mn       1.89742676       1.87764977       1.86265438       25      54.93804400       0.04444000       0.00139000       0.04158000
Mn       5.73658708       1.79552746       1.86314728       25      54.93804400       0.05003000       0.00144000       0.03466000
Mn       1.81522042       5.71676812       1.86349928       25      54.93804400       0.05015000       0.00145000       0.03499000
Mn       5.65439675       5.63461476       1.86401407       25      54.93804400       0.04451000       0.00156000       0.04146000
Mn       1.89691328       1.87683779       5.51355108       25      54.93804400       0.04354000       0.00229000       0.03615000
Mn       5.73607392       1.79470012       5.51405858       25      54.93804400       0.05214000       0.00041000       0.04292000
Mn       1.81469158       5.71595645       5.51442518       25      54.93804400       0.05263000       0.00041000       0.04245000
Mn       5.65387558       5.63380294       5.51491808       25      54.93804400       0.04407000       0.00294000       0.03636000
La       0.01564185       0.02123063       0.03653791       57     138.90547000      -0.15728000      -0.09862000      -0.00942000
La       3.88008669      -0.08615286       0.03703584       57     138.90547000      -0.11002000      -0.14970000      -0.00907000
La      -0.04127261       3.83510299       0.03736594       57     138.90547000      -0.10752000      -0.14789000      -0.00867000
La       7.53615846       7.49104207       3.69013054       57     138.90547000       0.13996000       0.09624000      -0.00800000
La       3.77261167       3.77820330       0.03788300       57     138.90547000      -0.16009000      -0.09652000      -0.00871000
La       3.67174433       7.59842490       3.68965452       57     138.90547000       0.08653000       0.14692000      -0.00823000
La       7.59310331       3.67718441       3.68929522       57     138.90547000       0.08981000       0.14854000      -0.00828000
La       3.77920367       3.73408443       3.68877815       57     138.90547000       0.13651000       0.09813000      -0.00790000
40
Lattice="8.111338 0.178453 -0.019547 0.176417 8.155927 -0.104793 -0.020235 -0.107489 8.30582" Properties=species:S:1:pos:R:3:Z:I:1:Masses:R:1:dft_forces:R:3 dft_energy=-41636.15771087 config_type=crystal pbc="T T T"
O        2.34425105       1.55207856       0.21248007        8      15.99900000      -0.21096000       0.26976000       0.41746000
O        1.68577307      -0.08414349       2.53623631        8      15.99900000       0.14881000       0.04017000      -0.10596000
O        8.10440919       2.53014126       1.64148467        8      15.99900000       0.17457000       0.01631000       0.08487000
O        5.65006811       2.42719540       0.17416916        8      15.99900000       0.07372000      -0.16020000       0.07499000
O        6.46455638       0.27368659       1.66662174        8      15.99900000      -0.13714000      -0.22482000       0.03454000
O        4.18104313       1.76157451       2.51267710        8      15.99900000      -0.30707000      -0.01341000      -0.09134000
O        1.68991060       6.39624418       0.08930567        8      15.99900000       0.11556000      -0.13954000       0.30492000
O        2.48831696       4.19740593       1.63745590        8      15.99900000      -0.25056000      -0.03782000       0.10057000
O        8.12583095       5.91397668       2.47686377        8      15.99900000      -0.06100000       0.08358000      -0.13759000
O        6.53345066       5.69949559       0.12822758        8      15.99900000      -0.35113000       0.27840000       0.17411000
O        5.82090424       4.01803762       2.48753160        8      15.99900000       0.03521000       0.22708000      -0.03998000
O        4.33603839       6.53366619       1.57249670        8      15.99900000      -0.06417000      -0.07912000       0.12883000
O        1.82987121       2.56117623       3.96122879        8      15.99900000       0.10879000      -0.26752000      -0.42477000
O        1.91053073       8.19774897       5.73257064        8      15.99900000      -0.00228000      -0.19543000       0.11898000
O        0.11835448       2.25288189       6.70158887        8      15.99900000      -0.12724000      -0.13953000      -0.22402000
O        6.63538447       1.86452895       3.97995928        8      15.99900000      -0.17566000       0.16217000      -0.08230000
O        6.56025971       8.12372366       6.60086661        8      15.99900000      -0.09442000       0.27346000      -0.15574000
O        4.03554036       1.75285961       5.77794028        8      15.99900000      -0.00608000       0.14333000       0.22118000
O        2.66060470       5.87295349       3.97960173        8      15.99900000      -0.21719000       0.14122000      -0.31142000
O        2.41974941       3.96395165       6.64214856        8      15.99900000      -0.10044000       0.19775000      -0.12458000
O        0.05778809       5.74098081       5.72697624        8      15.99900000      -0.01225000       0.17161000       0.21058000
O        5.92841885       6.74815544       3.92113278        8      15.99900000       0.24831000      -0.27556000      -0.18156000
O        5.88135823       4.21642170       5.75431400        8      15.99900000      -0.00823000      -0.27121000       0.15028000
O        4.27249996       6.42071173       6.64775135        8      15.99900000      -0.11972000      -0.16790000      -0.21318000
Mn       2.08705717       2.05663144       2.08685023       25      54.93804400       0.19954000      -0.01511000       0.01437000
Mn       6.14273463       2.14587443       2.07707650       25      54.93804400       0.23899000       0.00454000       0.00650000
Mn       2.17526567       6.13459494       2.03445373       25      54.93804400       0.23890000       0.00377000       0.01198000
Mn       6.23092658       6.22382137       2.02467195       25      54.93804400       0.24568000      -0.01556000       0.01874000
Mn       2.07693176       2.00289502       6.23975184       25      54.93804400       0.20462000      -0.00919000      -0.00469000
Mn       6.13262507       2.09212195       6.22998659       25      54.93804400       0.20443000      -0.00051000       0.02032000
Mn       2.16514799       6.08084228       6.18736384       25      54.93804400       0.20871000      -0.00005000       0.02636000
Mn       6.22080888       6.17006860       6.17759036       25      54.93804400       0.20958000      -0.00919000      -0.00070000
La       0.19745404       0.28358472       0.08255574       57     138.90547000      -0.22447000      -0.04150000      -0.26940000
La       4.37606902       0.22633307       0.07697026       57     138.90547000       0.13580000       0.12306000      -0.08174000
La       0.39152039       4.21274647       0.04005207       57     138.90547000       0.12724000       0.00017000      -0.17259000
La       8.12009970       7.98493070       4.02607247       57     138.90547000      -0.01709000      -0.02921000       0.24826000
La       4.34177775       4.46271235       0.02328798       57     138.90547000      -0.08538000       0.03120000      -0.25362000
La       3.95899506       8.05645925       4.02886353       57     138.90547000      -0.22962000       0.00175000       0.16735000
La       7.90942441       4.06540816       4.07718279       57     138.90547000      -0.23847000      -0.12075000       0.07617000
La       3.97667613       3.82966198       4.09116151       57     138.90547000       0.12211000       0.04379000       0.26381000
40
Lattice="7.970898 0.175706 0.001848 0.174363 7.970906 0.002372 -0.001713 -0.00225 7.675256" Properties=species:S:1:pos:R:3:Z:I:1:Masses:R:1:dft_forces:R:3 dft_energy=-41638.92998771 config_type=crystal pbc="T T T"
O        2.30750166       1.64786781       0.03937863        8      15.99900000      -0.15529000       0.20471000      -0.05672000
O        1.67078183      -0.06798028       2.27858021        8      15.99900000       0.14908000      -0.03677000      -0.17089000
O        8.14564821       2.50978688       1.63875106        8      15.99900000      -0.00140000      -0.18045000       0.07167000
O        5.65242703       2.37616735       0.04035336        8      15.99900000       0.16859000      -0.11928000      -0.05712000
O        6.33909686       0.24340935       1.63763456        8      15.99900000      -0.21974000       0.03873000       0.07494000
O        3.93684538       1.73896377       2.27959674        8      15.99900000      -0.08933000       0.18432000      -0.16977000
O        1.75417477       6.27373582       0.04060768        8      15.99900000       0.16853000      -0.11911000      -0.05692000
O        2.44083732       4.14100952       1.63792727        8      15.99900000      -0.21983000       0.03868000       0.07495000
O        8.00947605       5.81227773       2.28172977        8      15.99900000      -0.08928000       0.18430000      -0.16994000
O        6.38013181       5.72115787       0.04148863        8      15.99900000      -0.15530000       0.20474000      -0.05681000
O        5.74341233       4.00532571       2.28070556        8      15.99900000       0.14902000      -0.03677000      -0.17080000
O        4.24739631       6.40737130       1.63899003        8      15.99900000      -0.00161000      -0.18040000       0.07183000
O        1.80410155       2.42516107       3.87712884        8      15.99900000       0.08434000      -0.20289000      -0.05706000
O        1.84440824       7.90201232       5.47651435        8      15.99900000       0.14908000      -0.03720000       0.07512000
O        0.17375874       2.33278378       6.11656623        8      15.99900000      -0.00148000      -0.18051000      -0.16770000
O        6.43007436       1.87257551       3.87799443        8      15.99900000      -0.23931000       0.12099000      -0.05663000
O        6.51247617       8.21301044       6.11974649        8      15.99900000      -0.21974000       0.03859000      -0.17087000
O        3.93613980       1.73801122       5.47518958        8      15.99900000      -0.08975000       0.18429000       0.07409000
O        2.53180738       5.77019942       3.87826412        8      15.99900000      -0.23928000       0.12090000      -0.05681000
O        2.43984515       4.13968053       6.11761345        8      15.99900000      -0.21980000       0.03872000      -0.17087000
O        0.03786450       5.63561901       5.47545925        8      15.99900000      -0.08962000       0.18432000       0.07407000
O        5.87674055       6.49849116       3.87923117        8      15.99900000       0.08432000      -0.20289000      -0.05696000
O        5.74268337       4.00439656       5.47622932        8      15.99900000       0.14902000      -0.03708000       0.07512000
O        4.24639686       6.40607402       6.11867622        8      15.99900000      -0.00161000      -0.18042000      -0.16773000
Mn       2.05580585       2.03652649       1.95824990       25      54.93804400       0.15497000      -0.01291000       0.20600000
Mn       6.04126265       2.12437169       1.95917390       25      54.93804400       0.15208000       0.00768000       0.19774000
Mn       2.14298701       6.02196354       1.95943590       25      54.93804400       0.15216000       0.00778000       0.19791000
Mn       6.12843618       6.10982452       1.96035990       25      54.93804400       0.15503000      -0.01285000       0.20603000
Mn       2.05494918       2.03539351       5.79587790       25      54.93804400       0.14233000      -0.00816000       0.19307000
Mn       6.04039818       2.12324651       5.79680190       25      54.93804400       0.15754000      -0.00520000       0.20511000
Mn       2.14213068       6.02084651       5.79706390       25      54.93804400       0.15757000      -0.00534000       0.20503000
Mn       6.12757985       6.10870749       5.79798790       25      54.93804400       0.14237000      -0.00822000       0.19304000
La       0.19263674       0.25138156       0.03850095       57     138.90547000       0.03605000       0.13749000      -0.04767000
La       4.25630058       0.26103311       0.03940434       57     138.90547000       0.10096000       0.07244000      -0.04755000
La       0.35803291       4.15862514       0.03967401       57     138.90547000       0.10077000       0.07244000      -0.04764000
La       7.99163717       7.89497014       3.88012421       57     138.90547000      -0.10723000      -0.13611000      -0.04792000
La       4.26523536       4.32468686       0.04060326       57     138.90547000       0.03645000       0.13758000      -0.04768000
La       3.92794145       7.88531789       3.87919011       57     138.90547000      -0.17182000      -0.07016000      -0.04789000
La       7.82620080       3.98770974       3.87894346       57     138.90547000      -0.17196000      -0.07008000      -0.04792000
La       3.91897462       3.82165547       3.87800653       57     138.90547000      -0.10689000      -0.13592000      -0.04785000
40
Lattice="8.276824 0.314811 0.003884 0.312763 8.238543 -0.092155 0.001579 -0.096075 8.297666" Properties=species:S:1:pos:R:3:Z:I:1:Masses:R:1:dft_forces:R:3 dft_energy=-41634.56813466 config_type=crystal pbc="T T T"
O        2.46978403       1.56518061       0.20291846        8      15.99900000      -0.24589000       0.26037000       0.15757000
O        1.63425141      -0.13106038       2.54323346        8      15.99900000       0.14081000       0.04865000      -0.09205000
O        8.56208642       2.78657849       1.66060552        8      15.99900000       0.03143000      -0.15771000       0.12493000
O        5.79750759       2.55176484       0.15367145        8      15.99900000       0.19484000      -0.24560000       0.06384000
O        6.68476233       0.39845475       1.69253761        8      15.99900000      -0.15663000      -0.04830000       0.08622000
O        4.05172049       1.75748541       2.53096376        8      15.99900000      -0.05007000       0.15859000      -0.13059000
O        1.81542041       6.51366130       0.10567644        8      15.99900000       0.19502000      -0.24577000       0.06387000
O        2.70273947       4.36030526       1.64446021        8      15.99900000      -0.15678000      -0.04823000       0.08634000
O        8.34652446       6.03422011       2.48685251        8      15.99900000      -0.05010000       0.15839000      -0.13065000
O        6.76458767       5.84190765       0.15875752        8      15.99900000      -0.24593000       0.26031000       0.15754000
O        5.92904521       4.14562563       2.49903149        8      15.99900000       0.14086000       0.04880000      -0.09190000
O        4.58003811       6.74841100       1.61257809        8      15.99900000       0.03151000      -0.15763000       0.12489000
O        1.86721544       2.66407263       3.98479172        8      15.99900000       0.22962000      -0.25935000      -0.16518000
O        2.09746772       8.32756902       5.74211548        8      15.99900000      -0.08119000      -0.38708000       0.08201000
O        0.22289026       2.31435876       6.74085434        8      15.99900000       0.05740000      -0.16748000      -0.22960000
O        6.81629963       1.99230721       4.03790604        8      15.99900000      -0.21007000       0.24574000      -0.07068000
O        6.84864271       8.32083729       6.60690371        8      15.99900000       0.06537000       0.38754000      -0.08776000
O        4.11567165       1.81881905       5.74450524        8      15.99900000      -0.07436000       0.16774000       0.22310000
O        2.83432519       5.95412627       3.98986223        8      15.99900000      -0.21028000       0.24579000      -0.07063000
O        2.55388233       4.04416088       6.65109731        8      15.99900000       0.06520000       0.38748000      -0.08789000
O        0.13363318       5.78069307       5.69647735        8      15.99900000      -0.07427000       0.16771000       0.22311000
O        6.16197365       6.94069061       3.94066515        8      15.99900000       0.22977000      -0.25930000      -0.16514000
O        6.07948964       4.36569398       5.79017656        8      15.99900000      -0.08114000      -0.38709000       0.08189000
O        4.51767517       6.59102721       6.69671893        8      15.99900000       0.05735000      -0.16744000      -0.22959000
Mn       2.16849145       2.11462640       2.09384679       25      54.93804400       0.04210000      -0.00410000       0.00869000
Mn       6.30691236       2.27204869       2.09578861       25      54.93804400       0.03429000       0.00095000       0.01647000
Mn       2.32486437       6.23388925       2.04777768       25      54.93804400       0.03436000       0.00111000       0.01649000
Mn       6.46327668       6.39130309       2.04971129       25      54.93804400       0.04200000      -0.00403000       0.00866000
Mn       2.16928923       2.06658922       6.24267979       25      54.93804400       0.03098000      -0.00147000       0.00525000
Mn       6.30769295       2.22399450       6.24461349       25      54.93804400       0.02335000       0.00045000       0.01936000
Mn       2.32566245       6.18586040       6.19660229       25      54.93804400       0.02338000       0.00040000       0.01932000
Mn       6.46408273       6.34326612       6.19855259       25      54.93804400       0.03090000      -0.00148000       0.00523000
La       0.29075092       0.36833001       0.10437347       57     138.90547000      -0.21703000      -0.01119000      -0.33314000
La       4.55266937       0.35185452       0.11145509       57     138.90547000      -0.00390000       0.01661000      -0.26437000
La       0.57063918       4.31372905       0.06341060       57     138.90547000      -0.00388000       0.01653000      -0.26437000
La       8.34100005       8.13758189       4.03922627       57     138.90547000       0.20097000       0.01191000       0.32722000
La       4.58554441       4.64500730       0.06021308       57     138.90547000      -0.21686000      -0.01138000      -0.33310000
La       4.07909783       8.15405016       4.03211156       57     138.90547000      -0.01202000      -0.01603000       0.25858000
La       8.06115440       4.19221825       4.08011411       57     138.90547000      -0.01209000      -0.01624000       0.25873000
La       4.04625526       3.86088236       4.08333717       57     138.90547000       0.20100000       0.01183000       0.32729000
40
Lattice="7.557058 0.001077 0.000603 -0.001108 7.784886 0.001729 -0.000614 -0.001675 7.557069" Properties=species:S:1:pos:R:3:Z:I:1:Masses:R:1:dft_forces:R:3 dft_energy=-41636.1130106 config_type=crystal pbc="T T T"
O        2.27530108       2.09960881       0.05121973        8      15.99900000      -0.25925000      -0.16162000      -0.69878000
O        1.76387227      -0.01861547       1.77472538        8      15.99900000      -0.09584000       0.31649000      -0.07482000
O        7.58985075       2.05138879       1.39862008        8      15.99900000      -0.88945000      -0.28677000       0.40239000
O        5.15552307       2.10005403      -0.14039420        8      15.99900000       0.26313000      -0.16263000       0.76701000
O        5.67406985       0.07047779       1.78190376        8      15.99900000       0.10373000      -0.37315000      -0.07059000
O        3.61920895       1.89351048       2.29098492        8      15.99900000       0.89034000       0.26183000      -0.34015000
O        1.37925793       5.78612657      -0.14001272        8      15.99900000       0.32559000       0.26221000       0.79386000
O        1.88815967       3.96234433       1.91423882        8      15.99900000       0.09624000      -0.37275000       0.13716000
O        7.39728891       5.73765679       2.29492864        8      15.99900000       0.86075000       0.14555000      -0.27783000
O        6.05049414       5.78677308       0.05243048        8      15.99900000      -0.32156000       0.26176000      -0.72547000
O        5.53494452       3.87435920       1.90764833        8      15.99900000      -0.10279000       0.31652000       0.13322000
O        3.81064014       5.99191830       1.39636753        8      15.99900000      -0.85964000      -0.17026000       0.34001000
O        1.37672331       1.84403441       3.63777468        8      15.99900000       0.26300000       0.13750000       0.76725000
O        1.75557971       7.85393257       5.68681084        8      15.99900000      -0.10287000      -0.37285000       0.13264000
O       -0.15963430       2.04925684       6.06923771        8      15.99900000       0.89006000      -0.28648000      -0.34030000
O        6.05355177       1.84466619       3.82999917        8      15.99900000      -0.25919000       0.13685000      -0.69900000
O        5.66581760       7.76598195       5.69393478        8      15.99900000       0.09657000       0.31595000       0.13726000
O        3.81103711       1.89289822       5.17681063        8      15.99900000      -0.88962000       0.26141000       0.40240000