40
Lattice="7.678352302717619 -0.1642760003304115 0.0010152836704480396 -0.16439678451591444 7.678220770897848 0.001719302659384789 -0.0010423801115585927 -0.0016390660046644338 7.301808382530768" Properties=species:S:1:pos:R:3:energies:R:1:forces:R:3 energy=-317.4024704731419 free_energy=-317.4024704731419 stress="-0.1624164270094814 -4.586547302555302e-08 -7.862293462640673e-07 -4.586547302555302e-08 -0.1624198184567308 4.91367058086701e-07 -7.862293462640673e-07 4.91367058086701e-07 -0.16241885207660062" pbc="T T T"
La       0.01564189       0.02123262       0.03653959      -8.05321288      -0.00042205       0.00000388      -0.00014127
La       3.88008470      -0.08615473       0.03703308      -8.05314557       0.00010034       0.00006334      -0.00041766
La      -0.04127205       3.83510374       0.03736731      -8.05316942       0.00000997      -0.00013886      -0.00001526
La       7.53615978       7.49104303       3.69012971      -8.05318132       0.00058732      -0.00016091       0.00018024
La       3.77260914       3.77820143       0.03788201      -8.05319241      -0.00007974       0.00036792      -0.00003035
La       3.67174152       7.59842310       3.68965054      -8.05310574      -0.00068573      -0.00017348       0.00012368
La       7.59310370       3.67718253       3.68929734      -8.05318586       0.00033344       0.00002155      -0.00034229
La       3.77920615       3.73408826       3.68877476      -8.05321113      -0.00036507       0.00036454       0.00001575
Mn       1.89742810       1.87764666       1.86265798      -7.05630233      -0.00025501       0.00025356      -0.00011001
Mn       5.73658805       1.79552601       1.86314981      -7.05618425      -0.00000706       0.00006613       0.00045642
Mn       1.81521662       5.71677070       1.86349595      -7.05625558       0.00040783       0.00000568       0.00088353
Mn       5.65439755       5.63461491       1.86401528      -7.05628985      -0.00035511       0.00049082      -0.00051491
Mn       1.89691261       1.87683690       5.51355366      -7.05630977      -0.00036357      -0.00044201       0.00004271
Mn       5.73607282       1.79470203       5.51406093      -7.05629102       0.00002385       0.00003243       0.00000125
Mn       1.81468807       5.71595405       5.51442372      -7.05627862       0.00062204      -0.00010790      -0.00051951
Mn       5.65387249       5.63380508       5.51491649      -7.05637840      -0.00021168      -0.00006868       0.00052241
O        2.14625492       1.44246719       0.03711411      -8.09101014       0.00020884      -0.00003150      -0.00012496
O        1.92512162       0.03744430       2.15016014      -8.23729333      -0.00012420      -0.00060142      -0.00025055
O        7.57687129       1.76783303       1.57565644      -8.23757872       0.00006587      -0.00006479      -0.00010864
O        5.30125369       2.04456432       0.03768493      -8.09086158       0.00000968      -0.00021104      -0.00004681
O        5.79109430      -0.20337115       1.57478463      -8.23735580       0.00035943      -0.00019077       0.00026172
O        3.89629738       1.82321437       2.15065566      -8.23763973       0.00059469       0.00004695       0.00011155
O        1.37993207       5.96582992       0.03804211      -8.09092291      -0.00039564       0.00008175       0.00016601
O        1.86971963       3.71789080       1.57514075      -8.23739839       0.00003445       0.00011410       0.00012764
O        7.65327958       5.58018586       2.15200746      -8.23758306       0.00038271       0.00022114       0.00022854
O        5.90324863       5.19945665       0.03849594      -8.09094687      -0.00021811       0.00041060      -0.00055867
O        5.68209309       3.79442736       2.15150198      -8.23738085      -0.00006445      -0.00062065       0.00021368
O        3.65550972       5.68908785       1.57601546      -8.23762715      -0.00017057      -0.00029880      -0.00041662
O        1.64860398       2.31283143       3.68817585      -8.09096514      -0.00048177       0.00049761       0.00027258
O        1.76030158       7.71495348       5.22694885      -8.23743340       0.00000690       0.00022331      -0.00019678
O       -0.10209170       1.93114666       5.80108004      -8.23740207      -0.00058043      -0.00010940      -0.00025243
O        6.17193724       1.54647318       3.68862141      -8.09073325      -0.00034125       0.00007300      -0.00007485
O        5.62607279       7.47390866       5.80323950      -8.23747063       0.00003403       0.00034954      -0.00001360
O        3.89586300       1.82253870       5.22604922      -8.23752555       0.00080227      -0.00027456       0.00009815
O        2.25052851       5.46771099       3.68897497      -8.09082055       0.00035266       0.00026253      -0.00044686
O        1.86908986       3.71693214       5.80186412      -8.23740346       0.00004061       0.00007996       0.00019977
O       -0.02549069       5.74376810       5.22640748      -8.23754999      -0.00024465       0.00012847      -0.00014773
O        5.40554839       6.06979833       3.68950945      -8.09094538       0.00035784      -0.00032702       0.00074800
O        5.68167872       3.79371926       5.22659324      -8.23743453       0.00009805      -0.00045523      -0.00003207
O        3.65489012       5.68812716       5.80241738      -8.23749383      -0.00006524       0.00011809       0.00010698
40
Lattice="7.557058406926626 0.0010774449563822053 0.0006030848037158731 -0.0011081411847023348 7.784885885253235 0.0017288046971844905 -0.0006140897290914368 -0.0016752454989900016 7.557069422000083" Properties=species:S:1:pos:R:3:energies:R:1:forces:R:3 energy=-319.83615387407644 free_energy=-319.83615387407644 stress="-0.09801264317307055 -5.241548798444301e-07 -3.444342278189046e-07 -5.241548798444301e-07 -0.09801205058148127 3.404682013806797e-07 -3.444342278189046e-07 3.404682013806797e-07 -0.09801281639215051" pbc="T T T"
La      -0.06282881       0.02586505      -0.04534158      -8.11662886       0.00023842      -0.00030352      -0.00001926
La       3.71567953       0.15705147      -0.04501536      -8.10648337      -0.00029274      -0.00007670      -0.00016356
La      -0.06340132       3.91830015      -0.04450253      -8.09220581       0.00010712       0.00032211       0.00015427
La       7.49282867       7.68004313       3.73546309      -8.10630650       0.00029509      -0.00008023      -0.00007275
La       3.71512502       4.04950158      -0.04418114      -8.10644143       0.00006332       0.00013360      -0.00004566
La       3.71426865       7.81048010       3.73520292      -8.09224837      -0.00012473      -0.00031176      -0.00001255
La       7.49338843       3.78759403       3.73462747      -8.10630767       0.00013014       0.00041888      -0.00007485
La       3.71483944       3.91802242       3.73435118      -8.11657493      -0.00008861       0.00027250       0.00006901
Mn       1.82600721       1.97186235       1.84450714      -7.31498697      -0.00013930      -0.00000613      -0.00026338
Mn       5.60451855       1.97240658       1.84480739      -7.16760642       0.00013578      -0.00027232      -0.00049918
Mn       1.82544486       5.86429366       1.84534829      -7.16766199      -0.00011720       0.00031511      -0.00020416
Mn       5.60397592       5.86484771       1.84563732      -7.31503387       0.00013288       0.00015310       0.00013490
Mn       1.82569763       1.97102604       5.62303166      -7.16765623       0.00012938      -0.00047997      -0.00009236
Mn       5.60422020       1.97155979       5.62332141      -7.31491287      -0.00047541       0.00013461      -0.00014439
Mn       1.82513153       5.86347280       5.62388873      -7.31505177      -0.00003716      -0.00000540      -0.00047566
Mn       5.60366568       5.86402117       5.62419572      -7.16762275      -0.00006436      -0.00001704       0.00036201
O        2.27530323       2.09960984       0.05121942      -8.09289003      -0.00004210      -0.00017722       0.00050427
O        1.76387449      -0.01861896       1.77472535      -8.44846518      -0.00019771       0.00047283       0.00032114
O        7.58985203       2.05138477       1.39862086      -8.09159774       0.00000303      -0.00018762       0.00016768
O        5.15552091       2.10005564      -0.14039716      -8.09285640      -0.00003873      -0.00006730      -0.00007665
O        5.67407195       0.07047642       1.78190651      -8.44830290       0.00025953       0.00029022       0.00020335
O        3.61920669       1.89351149       2.29098401      -8.09164996      -0.00032018      -0.00011267       0.00007720
O        1.37925532       5.78612742      -0.14001161      -8.09158563      -0.00024333       0.00011861       0.00024524
O        1.88816041       3.96234435       1.91423791      -8.44829029       0.00026490      -0.00047413      -0.00001001
O        7.39729050       5.73765641       2.29492993      -8.09282158      -0.00044698       0.00016882       0.00007961
O        6.05049362       5.78677190       0.05243225      -8.09158676       0.00029859       0.00001445      -0.00009299
O        5.53494590       3.87435703       1.90764719      -8.44839356      -0.00023458      -0.00038752       0.00010525
O        3.81063821       5.99191825       1.39636575      -8.09278974       0.00058326      -0.00004515       0.00018471
O        1.37672304       1.84403268       3.63777647      -8.09280324      -0.00007583      -0.00015087      -0.00014335
O        1.75557875       7.85393260       5.68680910      -8.44829561      -0.00013296       0.00027693       0.00011422
O       -0.15963430       2.04925869       6.06923433      -8.09155945      -0.00008508      -0.00003449      -0.00001479
O        6.05355247       1.84466978       3.82999836      -8.09287799       0.00014193      -0.00013447       0.00040752
O        5.66581502       7.76597878       5.69393708      -8.44846037       0.00029226      -0.00025939      -0.00014639
O        3.81103494       1.89289725       5.17681381      -8.09163238       0.00034680      -0.00024847      -0.00018695
O        2.27161999       5.94256168       3.83069327      -8.09157349       0.00023029       0.00011731       0.00028051
O        1.89472614       3.87301556       5.56101147      -8.44843936      -0.00002183       0.00013907      -0.00012813
O        0.03184943       5.73597728       5.17454754      -8.09280615       0.00042284       0.00005850      -0.00027668
O        5.15745494       5.94302774       3.63886770      -8.09157951      -0.00054072       0.00016497      -0.00010918
O        5.54148361       3.96207689       5.55445945      -8.44832632      -0.00014019       0.00030917       0.00003559
O        3.61842127       5.99089184       6.07322809      -8.09284040      -0.00021556      -0.00004790      -0.00019318
40
Lattice="7.781369340218135 -0.004233170536021127 -0.04375581858391809 -0.004900211454606577 7.781110767670354 -0.04312169200268576 -0.04563059910682713 -0.046266722753709126 7.576165430409073" Properties=species:S:1:pos:R:3:energies:R:1:forces:R:3 energy=-320.7771517749041 free_energy=-320.7771517749041 stress="-0.07385074675927826 -1.181828337327582e-07 1.2217573298316853e-06 -1.181828337327582e-07 -0.07385151712834434 -4.993618849064597e-07 1.2217573298316853e-06 -4.993618849064597e-07 -0.07385035017875313" pbc="T T T"
La       0.11539468       0.13418755       0.03111349      -8.10336477      -0.00004346       0.00026326       0.00001353
La       4.04450658       0.09366066       0.00927117      -8.10355618      -0.00001350       0.00003016      -0.00004430
La       0.15135932       3.98631765       0.00957357      -8.10354430       0.00012650      -0.00013463       0.00018793
La       7.67672065       7.61906632       3.74561945      -8.10338030      -0.00006280       0.00007503      -0.00006442
La       4.00361046       4.02262871      -0.01230823      -8.10338512       0.00004799      -0.00004404       0.00004897
La       3.74760978       7.65961567       3.76749197      -8.10353791       0.00006042      -0.00012308      -0.00002609
La       7.64073610       3.76692825       3.76716112      -8.10353718      -0.00006111      -0.00018886      -0.00028081
La       3.78847322       3.73063711       3.78907280      -8.10336936       0.00025686      -0.00000839       0.00010958
Mn       1.95193433       1.93241320       1.91009555      -7.47666680       0.00004133      -0.00013984      -0.00014726
Mn       5.84261916       1.93029356       1.88821508      -7.47705488      -0.00003907       0.00007498       0.00032383
Mn       1.94947659       5.82296765       1.88853059      -7.47693046      -0.00010934      -0.00005614       0.00018095
Mn       5.84017178       5.82084845       1.86665459      -7.47666627      -0.00009495      -0.00010180       0.00008096
Mn       1.92911850       1.90927706       5.69817662      -7.44708483       0.00007603      -0.00004624      -0.00000647
Mn       5.81980458       1.90715976       5.67629633      -7.44642390      -0.00014421       0.00011968       0.00008620
Mn       1.92666965       5.79983565       5.67661336      -7.44643841       0.00011056       0.00011244      -0.00004965
Mn       5.81735720       5.79771549       5.65473873      -7.44698527      -0.00014344       0.00011331      -0.00007675
O        2.22455744       1.56726644       0.01980648      -8.12362573      -0.00014147       0.00007816       0.00016088
O        1.69814748      -0.09988350       2.24328267      -8.19502233       0.00002304       0.00004766      -0.00006168
O        7.87489261       2.18426336       1.55526373      -8.19533733      -0.00006777       0.00016252      -0.00018690
O        5.47766798       2.20337507      -0.00153409      -8.12367594      -0.00000232      -0.00005064      -0.00009357
O        6.09887696       0.07204822       1.57656064      -8.19500876       0.00007839       0.00007409      -0.00007408
O        3.81034606       1.67632002       2.22117302      -8.19535199      -0.00000534       0.00013248       0.00006046
O        1.58449538       6.09600045      -0.00123997      -8.12364951       0.00000284      -0.00001100      -0.00022459
O        2.20571337       3.96470353       1.57690694      -8.19506434      -0.00016666       0.00004303       0.00008559
O        7.69859383       5.56476096       2.17773890      -8.19531210      -0.00001715       0.00001124       0.00003929
O        6.11279405       5.45569837      -0.02361138      -8.12372051       0.00007081      -0.00005197       0.00005682
O        5.58636455       3.78854495       2.19987422      -8.19499534      -0.00008811      -0.00023238       0.00002246
O        3.98174495       6.07693602       1.55556488      -8.19532282       0.00021326      -0.00013888       0.00009016
O        1.67932470       2.29756109       3.80037951      -8.12366271       0.00003763      -0.00005058      -0.00005325
O        1.74294206       7.81653997       5.34913363      -8.21284935       0.00006507       0.00007165      -0.00004840
O       -0.08743907       2.09269942       6.02519080      -8.21328903       0.00009305      -0.00000865       0.00014957
O        6.20756770       1.65721965       3.77796760      -8.12364411       0.00007669       0.00013970      -0.00028914
O        5.99864187       7.67155730       5.96065349      -8.21287422       0.00012039      -0.00018657       0.00007861
O        3.94568000       1.72585857       5.37115334      -8.21327915      -0.00015283       0.00012648      -0.00005379
O        2.31447675       5.54993101       3.77830152      -8.12363565      -0.00004459      -0.00008378       0.00014658
O        2.11039668       3.78311950       6.00410230      -8.21290321       0.00001364       0.00003093      -0.00001338
O        0.05254541       5.61851212       5.37144044      -8.21325574       0.00010693       0.00011292       0.00006833
O        5.56754814       6.18599669       3.75692438      -8.12365064      -0.00003984       0.00000322      -0.00014033
O        5.63606884       3.92387398       5.34881835      -8.21285832      -0.00015230      -0.00011851       0.00002628
O        3.80079358       5.98115220       5.98178638      -8.21323703      -0.00003104      -0.00004707      -0.00008187
40
Lattice="7.862710167247092 0.040950318933338725 -0.04146635639942249 0.0401144124934299 7.862681672351466 -0.040846519739881876 -0.04363326053485803 -0.04425957770917146 7.652328991583572" Properties=species:S:1:pos:R:3:energies:R:1:forces:R:3 energy=-321.53127626448895 free_energy=-321.53127626448895 stress="-0.03293790434728746 -7.181972070634701e-07 1.9118720829943784e-07 -7.181972070634701e-07 -0.0329387157419251 1.1549411619074593e-06 1.9118720829943784e-07 1.1549411619074593e-06 -0.032937359618865" pbc="T T T"
La       0.13234945       0.16460109       0.03428904      -8.11918966       0.00016730       0.00021856       0.00015718
La       4.11551895       0.13326205       0.01354666      -8.11919794      -0.00016514       0.00033682       0.00006548
La       0.20421358       4.04412737       0.01383845      -8.11920968       0.00006440       0.00000554       0.00000706
La       7.78755073       7.71665020       3.78590308      -8.11919400       0.00015858       0.00014397      -0.00005474
La       4.08375063       4.11643088      -0.00688181      -8.11920312      -0.00027049      -0.00020439      -0.00008395
La       3.80438191       7.74800191       3.80664318      -8.11918095      -0.00008251       0.00016431      -0.00004730
La       7.71566334       3.83713372       3.80630936      -8.11920305       0.00011827      -0.00042268      -0.00001047
La       3.83612117       3.76485231       3.82703380      -8.11923113      -0.00018851      -0.00017531       0.00012236
Mn       1.98423881       1.96471614       1.93066215      -7.58197069      -0.00005387       0.00001564       0.00007664
Mn       5.91558898       1.98519464       1.90993113      -7.58196133       0.00000359       0.00029394      -0.00023175
Mn       2.00429232       5.89606516       1.91023786      -7.58193338       0.00009462      -0.00004733       0.00004345
Mn       5.93565743       5.91654006       1.88950502      -7.58192179      -0.00003178       0.00008777       0.00012218
Mn       1.96241732       1.94259458       5.75682424      -7.56696346       0.00008490       0.00018126      -0.00016250
Mn       5.89377209       1.96306777       5.73609496      -7.56693068      -0.00005510       0.00037769      -0.00000248
Mn       1.98247189       5.87393455       5.73640169      -7.56693452       0.00020413       0.00001283       0.00004603
Mn       5.91383173       5.89440817       5.71567172      -7.56699854      -0.00009396      -0.00006156      -0.00016849
O        2.24152433       1.58061611       0.02139664      -8.12003729      -0.00006370       0.00001347      -0.00004716
O        1.68280605      -0.09766009       2.26571569      -8.18413841      -0.00004070      -0.00010642      -0.00008453
O        7.97793896       2.28685605       1.57474790      -8.18411828      -0.00026652      -0.00008056      -0.00003574
O        5.53130582       2.24261498       0.00073916      -8.12003320      -0.00012311      -0.00003398       0.00036864
O        6.19694900       0.11625072       1.59528401      -8.18409684       0.00016700       0.00011456       0.00005697
O        3.85324391       1.68353746       2.24511472      -8.18410245       0.00027470      -0.00014670       0.00002320
O        1.61998717       6.15345801       0.00104844      -8.12005588      -0.00001599       0.00007088       0.00003954
O        2.28566696       4.02711205       1.59560755      -8.18410355       0.00000758       0.00006235       0.00000371
O        7.80466609       5.63535081       2.20395828      -8.18414096       0.00011822       0.00014408      -0.00004806
O        6.19292240       5.53240124      -0.01977664      -8.12005231      -0.00001452       0.00011734      -0.00017991
O        5.63423265       3.85414735       2.22456358      -8.18405775      -0.00006376      -0.00048517       0.00004993
O        4.06664029       6.19772116       1.57505016      -8.18411660      -0.00018505      -0.00005575       0.00007780
O        1.72694819       2.34883785       3.83992961      -8.11999531      -0.00000524      -0.00003290       0.00025690
O        1.77327439       7.92166314       5.39835432      -8.19363512      -0.00004342      -0.00030434      -0.00006230
O       -0.08532356       2.15154827       6.09503886      -8.19367691       0.00019350      -0.00016784      -0.00001282
O        6.29987356       1.72778156       3.81911508      -8.12008761       0.00006442      -0.00004307      -0.00022177
O        6.14310193       7.77801263       6.03333016      -8.19359198       0.00015254      -0.00017722      -0.00009563
O        4.01015640       1.73364399       5.41861604      -8.19361955      -0.00008060      -0.00016632      -0.00011375
O        2.38859590       5.63867745       3.81943174      -8.12004637      -0.00013411       0.00005533      -0.00016518
O        2.19167668       3.82620900       6.07445076      -8.19360784       0.00003874       0.00010904       0.00003632
O        0.09886082       5.64449190       5.41890573      -8.19361853       0.00004106       0.00016539       0.00010452
O        5.67838073       6.30067800       3.79878903      -8.12001541       0.00016944       0.00002977       0.00007675
O        5.68455338       4.01081280       5.39801054      -8.19354658       0.00008022       0.00006671       0.00007573
O        3.86610133       6.10338671       6.05389342      -8.19355763      -0.00022497      -0.00007620       0.00001751
40
Lattice="7.970897894379628 0.17570640181454952 0.001847637769010113 0.17436324100977693 7.970906196588409 0.002372337308601681 -0.0017131830467461383 -0.0022501831735299077 7.6752563116005765" Properties=species:S:1:pos:R:3:energies:R:1:forces:R:3 energy=-321.90086517264666 free_energy=-321.90086517264666 stress="-0.007042157307798139 -1.5591343405325523e-07 1.4776726116895845e-06 -1.5591343405325523e-07 -0.0070436792425433116 -1.9411132638996783e-07 1.4776726116895845e-06 -1.9411132638996783e-07 -0.007044353315476123" pbc="T T T"
La       0.19263524       0.25137803       0.03849821      -8.12427614       0.00016265      -0.00005765      -0.00006225
La       4.25630278       0.26103356       0.03940506      -8.12424565       0.00005254      -0.00000807       0.00009480
La       0.35803538       4.15862866       0.03967354      -8.12425069       0.00002508       0.00012657      -0.00001482
La       7.99163363       7.89497007       3.88012061      -8.12423697      -0.00006734      -0.00008527      -0.00013365
La       4.26523341       4.32468989       0.04060225      -8.12425346       0.00007777       0.00007585       0.00012078
La       3.92794395       7.88531461       3.87919313      -8.12425273      -0.00009706       0.00012329       0.00004736
La       7.82620279       3.98771304       3.87894163      -8.12423223      -0.00009574       0.00000945       0.00004233
La       3.91897565       3.82165185       3.87800449      -8.12426742       0.00003146      -0.00000700      -0.00005126
Mn       2.05580699       2.03652445       1.95824874      -7.63865171      -0.00009774       0.00005174      -0.00002018
Mn       6.04125924       2.12437445       1.95917595      -7.63869684      -0.00006365      -0.00001306      -0.00017046
Mn       2.14298658       6.02196742       1.95943641      -7.63870615       0.00004276      -0.00000052      -0.00001554
Mn       6.12844015       6.10982514       1.96035784      -7.63874207      -0.00005511      -0.00000425      -0.00003234
Mn       2.05494952       2.03539086       5.79587529      -7.63870954      -0.00005103       0.00007484      -0.00003246
Mn       6.04039963       2.12324658       5.79680071      -7.63875695      -0.00006489       0.00004117       0.00008819
Mn       2.14213097       6.02084715       5.79706312      -7.63869017      -0.00001746      -0.00019758      -0.00001924
Mn       6.12757980       6.10870484       5.79798788      -7.63869988       0.00000740      -0.00007711       0.00002251
O        2.30749913       1.64787018       0.03937636      -8.12551863      -0.00001333      -0.00006098       0.00008655
O        1.67078008      -0.06797792       2.27858011      -8.17462128      -0.00011402       0.00012036       0.00004732
O        8.14565087       2.50978392       1.63875261      -8.17455414       0.00014351      -0.00001121      -0.00005082
O        5.65242799       2.37617098       0.04035426      -8.12550576       0.00000361       0.00001079      -0.00018928
O        6.33909526       0.24341270       1.63763751      -8.17455681       0.00008765      -0.00019724       0.00009900
O        3.93684469       1.73896114       2.27959639      -8.17458292      -0.00002120      -0.00006554       0.00015095
O        1.75417729       6.27373176       0.04060359      -8.12550415      -0.00016471       0.00010115       0.00005070
O        2.44083641       4.14100999       1.63792501      -8.17457183       0.00005857      -0.00010343       0.00000306
O        8.00947783       5.81227786       2.28173178      -8.17456993       0.00014081      -0.00020225       0.00005295
O        6.38013498       5.72115885       0.04149221      -8.12551017      -0.00003473       0.00005005      -0.00029011
O        5.74341450       4.00532943       2.28070411      -8.17455921      -0.00002908       0.00016056       0.00003906
O        4.24739864       6.40737114       1.63898883      -8.17456206      -0.00006484       0.00016241      -0.00002583
O        1.80410479       2.42516548       3.87712618      -8.12550609      -0.00001768      -0.00002944      -0.00011174
O        1.84441171       7.90200853       5.47651596      -8.17456366       0.00001522      -0.00001264       0.00004607
O        0.17375569       2.33277998       6.11656275      -8.17455028       0.00006064      -0.00005354      -0.00005331
O        6.43007457       1.87257453       3.87799278      -8.12553471       0.00002466       0.00010631       0.00018889
O        6.51247594       8.21300709       6.11974443      -8.17456775       0.00014617      -0.00016538      -0.00007675
O        3.93614134       1.73801408       5.47518894      -8.17456709      -0.00003713      -0.00006704      -0.00001130
O        2.53180595       5.77020251       3.87826696      -8.12551677       0.00001889       0.00005913       0.00009884
O        2.43984782       4.13968185       6.11761362      -8.17455648      -0.00009107       0.00012425      -0.00005611
O        0.03786271       5.63561663       5.47545959      -8.17456738       0.00001157      -0.00002735      -0.00012937
O        5.87674267       6.49848781       3.87922889      -8.12550430       0.00006534      -0.00004983       0.00025180
O        5.74268540       4.00439262       5.47623055      -8.17457427      -0.00000730       0.00009883       0.00007113
O        4.24639701       6.40607697       6.11867734      -8.17457088       0.00002909      -0.00000078      -0.00005559
40
Lattice="7.926167515395443 0.059581038541152126 -0.025952327011854633 0.05922230094664936 7.844952082489334 -0.020158595254994353 -0.026703224767045317 -0.021393732282751873 8.084242854538228" Properties=species:S:1:pos:R:3:energies:R:1:forces:R:3 energy=-321.25090957792 free_energy=-321.25090957792 stress="0.023987216367660123 -1.0986960564808249e-06 -1.3829161615433884e-06 -1.0986960564808249e-06 0.0239883126621003 4.4370435054475737e-07 -1.3829161615433884e-06 4.4370435054475737e-07 0.023987027194191234" pbc="T T T"
La       0.13110440       0.18502962       0.04054687      -8.11441257      -0.00000351       0.00009843      -0.00011106
La       4.17178117       0.14962732       0.03902184      -8.11159774       0.00019030      -0.00042299      -0.00002956
La       0.24527082       4.03348167       0.02852674      -8.10439281      -0.00006997       0.00005383      -0.00003899
La       7.86853361       7.68431427       4.02010325      -8.11599641      -0.00011319       0.00006595       0.00007596
La       4.13556274       4.16185405       0.03356213      -8.11597596       0.00023038       0.00024783      -0.00018116
La       3.83265955       7.75312907       4.05111099      -8.10438957       0.00013315       0.00000043       0.00005464
La       7.77308928       3.85160856       4.03480517      -8.11164909      -0.00049544       0.00039721      -0.00029064
La       3.88760537       3.75663016       4.05924467      -8.11440189       0.00031758      -0.00021455       0.00008173
Mn       2.00935876       1.97081902       2.04989300      -7.72969354       0.00007891       0.00005122       0.00010878
Mn       5.97243503       2.00060743       2.03691485      -8.00554270       0.00011915       0.00028307       0.00036276
Mn       2.03896385       5.89330183       2.03981378      -7.73691654       0.00003319       0.00016327      -0.00045177
Mn       6.00205125       5.92310385       2.02682470      -8.00571598       0.00006032      -0.00026016       0.00045882
Mn       1.99599557       1.96013131       6.09200708      -7.62717691      -0.00002612      -0.00009545      -0.00001054
Mn       5.95908768       1.98991679       6.07903944      -7.63264582      -0.00000458       0.00001605      -0.00024545
Mn       2.02561159       5.88260073       6.08192701      -7.62117430      -0.00005188       0.00002337       0.00014884
Mn       5.98869427       5.91239630       6.06895214      -7.64808790       0.00011857       0.00005250      -0.00006217
O        2.23679293       1.55940524       0.16975591      -8.15974165      -0.00004733       0.00006375      -0.00036884
O        1.72025113      -0.00699124       2.46337349      -8.08655473      -0.00026807       0.00012198       0.00021842
O        7.87185069       2.31984645       1.62458168      -8.01881041      -0.00017264      -0.00015712       0.00018233