40
Lattice="7.878809 0.119933 0.114645 0.143223 7.879497 0.092656 -0.109633 -0.087465 7.624715" Properties=species:S:1:pos:R:3:Z:I:1:Masses:R:1:dft_forces:R:3 dft_energy=-41638.47771402 config_type=crystal pbc="T T T"
O        5.97198932       0.78610138       4.18133062        8      15.99900000      -0.22111000       0.12001000      -0.03692000
O        5.98642830       7.02370454       6.47478347        8      15.99900000      -0.15008000      -0.04755000      -0.18157000
O        3.51270458       0.68620565       5.73736107        8      15.99900000       0.04559000       0.15564000       0.11263000
O        1.40958158       1.35238030       4.12243531        8      15.99900000       0.17359000      -0.27465000      -0.03618000
O        1.44103143       6.77634269       5.77717478        8      15.99900000       0.20655000      -0.02101000       0.11498000
O        7.63919142       1.35496451       6.43344178        8      15.99900000       0.02552000      -0.21054000      -0.18273000
O        5.42046706       5.35005556       4.22654100        8      15.99900000       0.17193000      -0.26920000      -0.04325000
O        5.30844746       2.89558389       5.78904502        8      15.99900000       0.20547000      -0.01547000       0.11393000
O        3.77204427       5.23447205       6.42321614        8      15.99900000       0.02218000      -0.20972000      -0.18558000
O        2.10549306       4.66679813       4.17063223        8      15.99900000      -0.22292000       0.12304000      -0.04241000
O        1.97606164       3.02442907       6.37146770        8      15.99900000      -0.15192000      -0.04640000      -0.18144000
O        7.52385109       4.68556115       5.84023133        8      15.99900000       0.04718000       0.15921000       0.11665000
O        5.28904329       1.34063172       0.36507908        8      15.99900000       0.27475000      -0.16908000      -0.03820000
O        6.05070131       7.07455985       2.03311725        8      15.99900000      -0.16126000      -0.05381000       0.11208000
O        3.55844895       0.72344725       2.55469119        8      15.99900000       0.04930000       0.15614000      -0.17935000
O        1.97306039       0.65744242       0.30873709        8      15.99900000      -0.11689000       0.21981000      -0.03647000
O        1.48724856       6.81288648       2.59415282        8      15.99900000       0.21297000      -0.01991000      -0.17741000
O        7.70354856       1.40403175       1.99186299        8      15.99900000       0.01484000      -0.20468000       0.11017000
O        5.98516202       4.65645985       0.41215110        8      15.99900000      -0.11983000       0.22026000      -0.03468000
O        5.35513359       2.93241601       2.60554497        8      15.99900000       0.20865000      -0.01710000      -0.18105000
O        3.83602510       5.28402721       1.98047057        8      15.99900000       0.01721000      -0.20596000       0.11200000
O        1.42177178       5.22196947       0.35376674        8      15.99900000       0.27615000      -0.17556000      -0.03918000
O        2.03926086       3.07530350       1.92943541        8      15.99900000      -0.15550000      -0.05202000       0.11003000
O        7.56930303       4.72268270       2.65802876        8      15.99900000       0.05605000       0.15850000      -0.17716000
Mn       5.57608954       1.02007383       6.08587047       25      54.93804400      -0.12047000       0.09581000       0.12731000
Mn       1.63657639       0.96056968       6.02791866       25      54.93804400      -0.11498000       0.11996000       0.14830000
Mn       5.64773214       4.95980534       6.13164956       25      54.93804400      -0.10852000       0.11634000       0.15266000
Mn       1.70873233       4.90043580       6.07433974       25      54.93804400      -0.12252000       0.09820000       0.13323000
Mn       5.63048037       1.06349683       2.27312956       25      54.93804400      -0.11743000       0.11001000       0.15245000
Mn       1.69134014       1.00419614       2.21581088       25      54.93804400      -0.10402000       0.11412000       0.13160000
Mn       5.70257867       5.00342066       2.31924538       25      54.93804400      -0.10084000       0.11246000       0.12996000
Mn       1.76348787       4.94396093       2.26212390       25      54.93804400      -0.12440000       0.11060000       0.14894000
La       3.52249684       6.77023880       4.21534065       57     138.90547000      -0.11205000      -0.05923000      -0.03689000
La       7.52837482       6.76214185       4.27205821       57     138.90547000      -0.00770000      -0.15988000      -0.03200000
La       3.51716813       2.76278766       4.16898879       57     138.90547000      -0.00331000      -0.16031000      -0.03433000
La       4.01513316       7.11740087       0.41251434       57     138.90547000       0.16164000       0.00667000      -0.02927000
La       7.38893299       2.89006368       4.22650943       57     138.90547000      -0.11101000      -0.05985000      -0.04042000
La       7.88780904       7.24460146       0.46958195       57     138.90547000       0.05799000       0.11485000      -0.03345000
La       3.87726738       3.24483442       0.36630378       57     138.90547000       0.05857000       0.11181000      -0.03480000
La       0.00536173       3.11751208       0.30920771       57     138.90547000       0.16067000       0.00851000      -0.03216000
40
Lattice="7.644277 0.028848 0.149897 0.053084 6.706624 0.109395 -0.070025 -0.062939 7.569203" Properties=species:S:1:pos:R:3:Z:I:1:Masses:R:1:dft_forces:R:3 dft_energy=-41590.6143106 config_type=crystal pbc="T T T"
O        5.27815651       0.59609365       4.32830592        8      15.99900000      -3.07459000       1.55302000       0.24747000
O        5.60288162       5.91733208       6.46778081        8      15.99900000       0.20786000      -3.98099000       0.32208000
O        3.45353601       0.62395685       6.00546365        8      15.99900000      -3.54509000      -0.97614000       0.63864000
O        1.32508050       1.18745441       4.12956659        8      15.99900000       0.33903000      -0.62457000       0.64952000
O        1.25643642       5.85250949       5.62257321        8      15.99900000       0.67686000      -0.54693000       0.83801000
O        7.25904436       1.23475055       6.04151416        8      15.99900000      -0.63512000      -1.89390000      -0.66235000
O        5.35991453       4.34225056       4.39906907        8      15.99900000      -0.54048000       1.04870000      -0.52389000
O        4.76383368       2.50566208       5.74211009        8      15.99900000       5.16952000      -5.64970000     -10.08239000
O        3.43031047       4.31624762       6.00358508        8      15.99900000       0.56071000       0.83859000       0.20529000
O        1.50109536       3.87684465       4.04358537        8      15.99900000       1.41823000      -1.32102000       0.45938000
O        1.92521318       2.52002972       6.41464134        8      15.99900000       1.61073000      -8.00082000       2.30845000
O        7.20854454       4.01639931       6.11770924        8      15.99900000       0.13330000      -0.47759000       0.27662000
O        5.58609629       1.17576650       0.69283767        8      15.99900000       0.91805000      -2.32131000      -0.45760000
O        5.92814428       5.83773638       2.23525441        8      15.99900000      -0.76073000       0.69894000      -0.32376000
O        3.74431171       0.69579449       2.25454407        8      15.99900000       0.22986000      -0.01625000       1.08742000
O        1.80852177       0.68600577       0.24722771        8      15.99900000      -0.24082000      -0.51474000       0.39650000
O        1.52272550       5.87937172       2.62030817        8      15.99900000       1.03022000       0.75463000      -0.61840000
O        7.61841883       1.21996905       2.29900110        8      15.99900000      -1.02555000      -0.84589000      -0.84645000
O        5.61412699       4.03767258       0.59845247        8      15.99900000       0.90831000       0.21260000      -1.54054000
O        5.16895659       2.52815392       2.91408329        8      15.99900000     -10.93796000      -9.91995000      -0.18892000
O        3.77760756       4.30627190       2.19011166        8      15.99900000      -1.41364000       0.47006000       1.17509000
O        1.79609626       4.40320340       0.25422328        8      15.99900000      -0.86490000       1.42495000       1.02502000
O        2.30143860       2.57912255       1.64311260        8      15.99900000       2.81093000      -4.29956000      -3.88388000
O        7.54077252       4.00542841       2.38244254        8      15.99900000       0.07001000      -0.60768000      -0.94936000
Mn       5.17062325       0.81923224       6.10178797       25      54.93804400       8.07524000       0.27600000       1.17345000
Mn       1.58716684       0.87699354       5.98787043       25      54.93804400      -2.37151000      -2.61246000      -1.46366000
Mn       5.29018483       3.91601301       6.22781552       25      54.93804400       6.77076000      14.59990000      -0.46424000
Mn       1.53366341       3.91974937       5.95110054       25      54.93804400      -2.99713000      12.49426000      -3.11805000
Mn       5.70913708       1.00580524       2.64852595       25      54.93804400      -3.01023000      -9.16803000     -11.23672000
Mn       1.89171324       1.11595032       2.23788339       25      54.93804400      -3.35897000      -8.74472000      -0.04948000
Mn       5.63017897       3.86347932       2.54779386       25      54.93804400       1.85324000      21.96888000      -8.49966000
Mn       1.85181232       3.95214108       2.17108712       25      54.93804400      -3.47460000      12.44311000       3.28585000
La       3.48431804       5.96880238       4.35966268       57     138.90547000      -3.07007000      -7.13088000      -4.09669000
La       7.03591132       6.09596828       4.22108550       57     138.90547000       8.48745000      -6.49526000       1.50568000
La       3.37218049       2.11430310       4.22086410       57     138.90547000      -4.02324000       6.74151000      -3.29741000
La       3.83879760       5.99179940       0.48403334       57     138.90547000      -1.27419000      -2.65234000       2.82429000
La       6.82143455       2.46623692       4.03133322       57     138.90547000      14.15724000       2.95701000      12.08365000
La       7.52555060       6.18920181       0.34926336       57     138.90547000       0.87682000      -4.84416000       2.22548000
La       4.07476382       2.51434131      -0.10369019       57     138.90547000     -12.97497000       0.36793000      17.70661000
La      -0.26232953       2.41654324       0.19656834       57     138.90547000       3.28946000       4.79480000       1.86895000
40
Lattice="8.077856 0.220671 0.117825 0.24716 8.077539 0.095464 -0.110088 -0.087813 7.714066" Properties=species:S:1:pos:R:3:Z:I:1:Masses:R:1:dft_forces:R:3 dft_energy=-41638.93022991 config_type=crystal pbc="T T T"
O        6.17227556       0.88780686       4.23306737        8      15.99900000      -0.13009000       0.06713000      -0.01443000
O        6.29133542       7.30377678       6.56665159        8      15.99900000      -0.11724000       0.03503000      -0.10455000
O        3.58298513       0.68759921       5.79199545        8      15.99900000      -0.03224000       0.11816000       0.10261000
O        1.46896511       1.44232994       4.17208350        8      15.99900000       0.16177000      -0.22290000      -0.00744000
O        1.50438632       6.93668773       5.83452049        8      15.99900000       0.21227000      -0.14911000       0.10246000
O        7.88006616       1.54638189       6.52512200        8      15.99900000       0.14819000      -0.21088000      -0.10961000
O        5.63321094       5.59101209       4.27821555        8      15.99900000       0.15632000      -0.22184000      -0.00763000
O        5.41980131       3.00764437       5.84476130        8      15.99900000       0.21128000      -0.14455000       0.10285000
O        3.96476026       5.47526090       6.51248101        8      15.99900000       0.14587000      -0.21219000      -0.10505000
O        2.25596597       4.81615130       4.22175638        8      15.99900000      -0.12877000       0.06701000      -0.01154000
O        2.12843514       3.15468121       6.46037200        8      15.99900000      -0.11721000       0.03729000      -0.10635000
O        7.74558527       4.83653921       5.89919499        8      15.99900000      -0.03210000       0.11859000       0.10218000
O        5.40151550       1.43428181       0.36904759        8      15.99900000       0.22411000      -0.15850000      -0.00433000
O        6.35485248       7.35577967       2.04926442        8      15.99900000      -0.11797000       0.03103000       0.10026000
O        3.62915777       0.72536621       2.59693827        8      15.99900000      -0.03362000       0.11741000      -0.10683000
O        2.02641809       0.66041947       0.31303942        8      15.99900000      -0.06619000       0.12711000      -0.00685000
O        1.55069955       6.97332175       2.63787823        8      15.99900000       0.21347000      -0.14599000      -0.10869000
O        7.94449411       1.59793371       2.00625339        8      15.99900000       0.14331000      -0.21286000       0.10311000
O        6.18732957       4.80808078       0.41925887        8      15.99900000      -0.06447000       0.13210000      -0.00992000
O        5.46571758       3.04418786       2.64801974        8      15.99900000       0.21255000      -0.14099000      -0.10166000
O        4.02920352       5.52655908       1.99543085        8      15.99900000       0.14392000      -0.21417000       0.10196000
O        1.48623294       5.36315166       0.35876812        8      15.99900000       0.22591000      -0.15812000      -0.01189000
O        2.19221072       3.20669906       1.94300412        8      15.99900000      -0.11835000       0.03060000       0.09948000
O        7.79140771       4.87445164       2.70178089        8      15.99900000      -0.02887000       0.11517000      -0.10143000
Mn       5.73212789       1.11720498       6.15781353       25      54.93804400      -0.21014000       0.18614000       0.00868000
Mn       1.69250374       1.00692192       6.09973281       25      54.93804400      -0.19064000       0.20464000       0.01988000
Mn       5.85493924       5.15610225       6.20595271       25      54.93804400      -0.18824000       0.20035000       0.02297000
Mn       1.81648459       5.04579293       6.14730964       25      54.93804400      -0.21043000       0.18714000       0.00127000
Mn       5.78645841       1.16146656       2.30120652       25      54.93804400      -0.20953000       0.18776000       0.02119000
Mn       1.74737749       1.05111322       2.24280093       25      54.93804400      -0.18698000       0.20419000       0.00122000
Mn       5.91032070       5.20032847       2.34858092       25      54.93804400      -0.19524000       0.20505000       0.00313000
Mn       1.87113654       5.08987910       2.28984095       25      54.93804400      -0.20525000       0.19300000       0.03177000
La       3.63361925       6.94062814       4.26534041       57     138.90547000      -0.08723000      -0.11474000      -0.00486000
La       7.76159206       6.96178237       4.32471736       57     138.90547000      -0.01629000      -0.18290000      -0.00297000
La       3.59858299       2.81213883       4.21808273       57     138.90547000      -0.01740000      -0.17900000      -0.00426000
La       4.27206286       7.38734768       0.42098876       57     138.90547000       0.18091000       0.02364000       0.00269000
La       7.54820735       3.01297798       4.27600968       57     138.90547000      -0.08486000      -0.11330000      -0.00113000
La       8.22197184       7.58801980       0.48013710       57     138.90547000       0.11098000       0.08733000       0.00101000
La       4.05867764       3.43775525       0.37347590       57     138.90547000       0.11723000       0.08760000       0.00061000
La       0.10916080       3.23884462       0.31440722       57     138.90547000       0.18130000       0.01853000       0.00208000
40
Lattice="7.705603 -0.093888 0.109955 -0.076773 7.70642 0.089505 -0.108918 -0.08608 7.481976" Properties=species:S:1:pos:R:3:Z:I:1:Masses:R:1:dft_forces:R:3 dft_energy=-41636.27557828 config_type=crystal pbc="T T T"
O        5.85679002       0.61944129       4.10283505        8      15.99900000      -0.54210000       0.22159000      -0.03260000
O        5.52121226       6.54959736       6.35477997        8      15.99900000      -0.12655000       0.13130000      -0.20676000
O        3.57640495       0.71450377       5.62157222        8      15.99900000      -0.14086000       0.13017000       0.17769000
O        1.35208799       1.31987116       4.04412468        8      15.99900000       0.24691000      -0.56937000      -0.02235000
O        1.36057453       6.74958012       5.66292368        8      15.99900000       0.14784000      -0.16813000       0.16509000
O        7.27269423       0.97880716       6.31699261        8      15.99900000       0.18247000      -0.15549000      -0.21215000
O        5.16576302       5.12445895       4.14446047        8      15.99900000       0.25080000      -0.56295000      -0.02522000
O        5.25159238       2.84927710       5.67486593        8      15.99900000       0.14583000      -0.17054000       0.15957000
O        3.38179753       4.87911792       6.30624225        8      15.99900000       0.18309000      -0.15652000      -0.20929000
O        1.96585820       4.52110367       4.09252669        8      15.99900000      -0.54683000       0.22211000      -0.03638000
O        1.70707634       2.74325940       6.25498579        8      15.99900000      -0.12686000       0.13173000      -0.20414000
O        7.39121676       4.51966666       5.72230538        8      15.99900000      -0.14473000       0.13296000       0.17161000
O        5.10070656       1.15782893       0.35440992        8      15.99900000       0.57098000      -0.24467000      -0.01734000
O        5.58441129       6.59885774       1.97919578        8      15.99900000      -0.13364000       0.13660000       0.17412000
O        3.62060470       0.75120586       2.51690852        8      15.99900000      -0.12898000       0.12922000      -0.20175000
O        1.89990906       0.55218942       0.30233912        8      15.99900000      -0.21948000       0.54698000      -0.02576000
O        1.40502054       6.78596353       2.55692005        8      15.99900000       0.16157000      -0.17455000      -0.20545000
O        7.33711349       1.02748155       1.93951804        8      15.99900000       0.16836000      -0.15129000       0.16358000
O        5.71582306       4.36035750       0.40262953        8      15.99900000      -0.22534000       0.53907000      -0.02425000
O        5.29679275       2.88556365       2.56846037        8      15.99900000       0.15934000      -0.17468000      -0.21588000
O        3.44645485       4.92730101       1.92967845        8      15.99900000       0.16717000      -0.15269000       0.16274000
O        1.21102336       5.05865922       0.34411726        8      15.99900000       0.56493000      -0.24496000      -0.02014000
O        1.77026728       2.79232223       1.87850849        8      15.99900000      -0.13330000       0.14143000       0.17238000
O        7.43520237       4.55652642       2.61689948        8      15.99900000      -0.12683000       0.13093000      -0.20172000
Mn       5.42455296       0.84628999       5.96955884       25      54.93804400      -0.05737000       0.04687000       0.07629000
Mn       1.57183420       0.89321423       5.91420807       25      54.93804400      -0.05487000       0.05662000       0.09040000
Mn       5.38655764       4.69942386       6.01448822       25      54.93804400      -0.05718000       0.05926000       0.09112000
Mn       1.53370661       4.74654288       5.95909293       25      54.93804400      -0.05349000       0.04948000       0.07837000
Mn       5.47896924       0.88902264       2.22853667       25      54.93804400      -0.06197000       0.05152000       0.08953000
Mn       1.62600256       0.93604981       2.17320599       25      54.93804400      -0.05268000       0.05213000       0.07495000
Mn       5.44098857       4.74213243       2.27353335       25      54.93804400      -0.05752000       0.05405000       0.07782000
Mn       1.58794829       4.78910113       2.21800632       25      54.93804400      -0.05686000       0.05097000       0.09446000
La       3.38139542       6.61188896       4.13644148       57     138.90547000      -0.08605000       0.12517000      -0.01990000
La       7.26121152       6.53566263       4.19177839       57     138.90547000       0.14863000      -0.09889000      -0.02084000
La       3.44618083       2.73119434       4.09184360       57     138.90547000       0.15759000      -0.10798000      -0.01721000
La       3.60919837       6.77345439       0.39996668       57     138.90547000       0.10808000      -0.15076000      -0.02219000
La       7.27152475       2.71049336       4.14716803       57     138.90547000      -0.08263000       0.13177000      -0.02051000
La       7.43472874       6.75414425       0.45478623       57     138.90547000      -0.12810000       0.08291000      -0.02064000
La       3.62082541       2.94825509       0.35459650       57     138.90547000      -0.12951000       0.08275000      -0.01754000
La      -0.20486231       2.96770436       0.29990356       57     138.90547000       0.11014000      -0.15412000      -0.01971000
40
Lattice="8.189221 0.299001 0.119457 0.327857 8.188679 0.09732 -0.109883 -0.087295 7.734472" Properties=species:S:1:pos:R:3:Z:I:1:Masses:R:1:dft_forces:R:3 dft_energy=-41638.50693771 config_type=crystal pbc="T T T"
O        6.28430677       0.95640797       4.24590927        8      15.99900000      -0.14348000       0.09890000      -0.01327000
O        6.48090289       7.48467570       6.59676552        8      15.99900000      -0.15498000       0.11826000      -0.10966000
O        3.61778218       0.69892411       5.79892524        8      15.99900000      -0.11856000       0.15110000       0.10231000
O        1.50186772       1.49741079       4.18351885        8      15.99900000       0.11283000      -0.15407000      -0.00962000
O        1.55986072       7.02508156       5.84176099        8      15.99900000       0.16307000      -0.13451000       0.10306000
O        8.02482103       1.67634677       6.55258982        8      15.99900000       0.12898000      -0.16221000      -0.10696000
O        5.76225538       5.74020742       4.29181343        8      15.99900000       0.10922000      -0.15347000      -0.00748000
O        5.49075780       3.07920277       5.85139716        8      15.99900000       0.15769000      -0.12933000       0.10857000
O        4.09449565       5.62153345       6.54158447        8      15.99900000       0.12906000      -0.16221000      -0.10867000
O        2.35541756       4.90267767       4.23414735        8      15.99900000      -0.14718000       0.09843000      -0.00836000
O        2.22251877       3.24085494       6.48787652        8      15.99900000      -0.15393000       0.12288000      -0.11244000
O        7.87755605       4.94420708       5.90737852        8      15.99900000      -0.12430000       0.14905000       0.10359000
O        5.46887391       1.50602348       0.37079395        8      15.99900000       0.14938000      -0.10975000      -0.00354000
O        6.54544633       7.53622297       2.04970214        8      15.99900000      -0.15873000       0.11465000       0.10000000
O        3.66402701       0.73726772       2.61275033        8      15.99900000      -0.11885000       0.14681000      -0.11282000
O        2.06085394       0.66794957       0.31483032        8      15.99900000      -0.09928000       0.14098000      -0.01745000
O        1.60543093       7.06068810       2.65382019        8      15.99900000       0.16483000      -0.12995000      -0.10873000
O        8.08879920       1.72736928       2.00524943        8      15.99900000       0.12963000      -0.16356000       0.10337000
O        6.31931195       4.91026747       0.42227974        8      15.99900000      -0.10094000       0.14630000      -0.01332000
O        5.53679766       3.11600476       2.66491563        8      15.99900000       0.15898000      -0.13455000      -0.10746000
O        4.15923601       5.67194549       1.99353617        8      15.99900000       0.12262000      -0.15876000       0.10351000
O        1.53751197       5.45089297       0.35989411        8      15.99900000       0.15458000      -0.10909000      -0.00438000
O        2.28713529       3.29296215       1.94070446        8      15.99900000      -0.15660000       0.11555000       0.10293000
O        7.92298961       4.97986779       2.72001667        8      15.99900000      -0.12188000       0.15371000      -0.10979000
Mn       5.82179995       1.18771133       6.17572290       25      54.93804400      -0.00838000       0.02365000       0.01339000
Mn       1.72669472       1.03759903       6.11568646       25      54.93804400      -0.01822000       0.02315000       0.02084000
Mn       5.98592892       5.28291220       6.22481329       25      54.93804400      -0.01363000       0.01653000       0.01666000
Mn       1.89164295       5.13297900       6.16460480       25      54.93804400      -0.01486000       0.02388000       0.01632000
Mn       5.87716915       1.23141549       2.30847813       25      54.93804400      -0.01442000       0.03682000       0.02341000
Mn       1.78191945       1.08258384       2.24901120       25      54.93804400      -0.01561000       0.01947000       0.01999000
Mn       6.04064511       5.32593954       2.35668506       25      54.93804400      -0.00411000       0.01553000       0.01872000
Mn       1.94661243       5.17685037       2.29717830       25      54.93804400      -0.01581000       0.02639000       0.02004000
La       3.71019949       7.04036979       4.27736464       57     138.90547000      -0.11947000      -0.05632000      -0.00326000
La       7.90577976       7.08761500       4.33777710       57     138.90547000      -0.05244000      -0.11952000      -0.00413000
La       3.64628210       2.84361275       4.22904048       57     138.90547000      -0.04920000      -0.12186000      -0.00465000
La       4.44210834       7.55639167       0.42517818       57     138.90547000       0.11548000       0.05118000       0.00152000
La       7.63810422       3.09673601       4.28932039       57     138.90547000      -0.11148000      -0.06617000      -0.00894000
La       8.43489629       7.80795415       0.48560112       57     138.90547000       0.05680000       0.11304000      -0.00519000
La       4.17590676       3.56366948       0.37596328       57     138.90547000       0.06053000       0.11115000       0.00264000
La       0.18341763       3.31217368       0.31720106       57     138.90547000       0.12262000       0.04790000      -0.00073000
40
Lattice="8.409087 0.442503 0.123016 0.475751 8.407837 0.100602 -0.109227 -0.086721 7.781282" Properties=species:S:1:pos:R:3:Z:I:1:Masses:R:1:dft_forces:R:3 dft_energy=-41637.26377156 config_type=crystal pbc="T T T"
O        6.51161055       1.08512818       4.27357433        8      15.99900000      -0.12598000       0.11268000      -0.01309000
O        6.83967716       7.83921236       6.65116086        8      15.99900000      -0.11642000       0.19558000      -0.07081000
O        3.68040382       0.72237487       5.82526559        8      15.99900000      -0.19958000       0.11380000       0.05553000
O        1.56594233       1.60615206       4.21097935        8      15.99900000       0.12488000      -0.14013000      -0.00897000
O        1.66318973       7.18731724       5.86450528        8      15.99900000       0.13029000      -0.22507000       0.06626000
O        8.31755271       1.91685246       6.60855677        8      15.99900000       0.21553000      -0.13544000      -0.07068000
O        6.01042489       6.03125202       4.32306563        8      15.99900000       0.13040000      -0.13712000      -0.01338000
O        5.63024850       3.20497085       5.87669433        8      15.99900000       0.13072000      -0.22720000       0.06445000
O        4.35405895       5.90079667       6.59866958        8      15.99900000       0.21853000      -0.13346000      -0.07435000
O        2.54501450       5.06568355       4.26182323        8      15.99900000      -0.12268000       0.11405000      -0.01080000
O        2.39657526       3.41406313       6.54033883        8      15.99900000      -0.11747000       0.19247000      -0.07596000
O        8.12675499       5.15038925       5.93665563        8      15.99900000      -0.20124000       0.11011000       0.05773000
O        5.59438780       1.64217483       0.37490139        8      15.99900000       0.13550000      -0.13430000      -0.01179000
O        6.90735054       7.89358926       2.05558429        8      15.99900000      -0.11990000       0.19787000       0.06432000
O        3.72280393       0.75612020       2.64052175        8      15.99900000      -0.20231000       0.10998000      -0.07422000
O        2.12934727       0.67420802       0.31720238        8      15.99900000      -0.11784000       0.12110000      -0.01523000
O        1.71162469       7.22602174       2.68094460        8      15.99900000       0.13086000      -0.21629000      -0.07320000
O        8.37908142       1.96437358       2.01383702        8      15.99900000       0.21035000      -0.13485000       0.06002000
O        6.57570592       5.10143610       0.42845920        8      15.99900000      -0.11607000       0.11705000      -0.01123000