40
Lattice="7.64427737008703 0.02884774865556447 0.14989675310460834 0.0530839346248253 6.7066236657370055 0.10939467200570556 -0.07002474247154136 -0.06293933040246276 7.569202823777333" Properties=species:S:1:pos:R:3:energies:R:1:forces:R:3 energy=-315.66072243403516 free_energy=-315.66072243403516 stress="0.07319273305853659 -9.872226096201192e-07 -8.542992680751968e-06 -9.872226096201192e-07 0.07321376550155936 -1.0164453721983407e-05 -8.542992680751968e-06 -1.0164453721983407e-05 0.07317845615963167" pbc="T T T"
La       3.48431898       5.96880287       4.35966168      -7.68140505      -0.00006433      -0.00014747      -0.00159055
La       7.03591527       6.09596515       4.22108902      -8.00165995       0.00151207       0.00028619       0.00025443
La       3.37217903       2.11430327       4.22086284      -7.49615870       0.00038363      -0.00007111      -0.00054718
La       3.83880060       5.99180053       0.48403131      -7.61808612      -0.00090118      -0.00022106      -0.00045693
La       6.82143250       2.46623608       4.03133442      -7.60265516      -0.00359905       0.00075378      -0.00219109
La       7.52555003       6.18920351       0.34926681      -8.31336154       0.00136643       0.00041974       0.00133521
La       4.07476564       2.51433810      -0.10369125      -7.66455976       0.00147750      -0.00104155       0.00008759
La      -0.26232868       2.41654183       0.19656629      -7.53924947      -0.00001882       0.00100540       0.00085169
Mn       5.17062116       0.81922862       6.10178668      -7.55616974       0.00450238       0.00100839      -0.00127300
Mn       1.58716525       0.87699107       5.98787135      -6.94449944      -0.00179867      -0.00098935      -0.00244454
Mn       5.29018302       3.91601517       6.22781695      -7.43513927       0.00123310       0.00031041       0.00094111
Mn       1.53366514       3.91974894       5.95110050      -7.02562439       0.00091175       0.00301525       0.00155992
Mn       5.70913463       1.00580638       2.64852763      -7.24387722       0.00023806      -0.00005492       0.00467145
Mn       1.89171712       1.11595292       2.23788650      -7.03092416      -0.00098728      -0.00274321       0.00058749
Mn       5.63018134       3.86348194       2.54779747      -6.73062004      -0.00136540      -0.00101532       0.00131223
Mn       1.85180877       3.95214112       2.17108708      -7.06741745       0.00006739      -0.00062870       0.00088489
O        5.27815454       0.59609553       4.32830616      -9.06186822       0.00215827       0.00106473      -0.00213844
O        5.60288181       5.91733514       6.46778260      -8.01627424       0.00012895      -0.00139363      -0.00120852
O        3.45353726       0.62395813       6.00546691      -9.41092123      -0.00065918       0.00056072       0.00105545
O        1.32508145       1.18745349       4.12956429      -7.34086468      -0.00013580      -0.00120043       0.00100431
O        1.25643522       5.85250885       5.62257059      -8.18984505       0.00043181       0.00194964       0.00001557
O        7.25904204       1.23474878       6.04151569      -7.53154625      -0.00118599      -0.00079480      -0.00112560
O        5.35991495       4.34224751       4.39907015      -9.49513794       0.00031340      -0.00004901       0.00039917
O        4.76383062       2.50566421       5.74210890      -7.47016795      -0.00279645       0.00015331      -0.00173212
O        3.43031447       4.31624580       6.00358844      -9.46053759      -0.00094304      -0.00308410      -0.00022213
O        1.50109743       3.87684340       4.04358745      -8.20085923       0.00085525       0.00045378      -0.00292693
O        1.92521664       2.52003189       6.41464341      -7.27798528      -0.00021466      -0.00284858       0.00117834
O        7.20854275       4.01639883       6.11770840      -8.20029727      -0.00219864       0.00007864      -0.00061024
O        5.58609851       1.17576765       0.69283946      -7.96089576      -0.00020137      -0.00043243      -0.00128160
O        5.92814700       5.83773436       2.23525106      -7.78225964      -0.00076355       0.00090876       0.00058983
O        3.74431306       0.69579530       2.25454487      -8.17599682      -0.00074072       0.00010430       0.00081315
O        1.80852424       0.68600660       0.24722699      -8.77938240      -0.00164292      -0.00023047       0.00038845
O        1.52272721       5.87936939       2.62031044      -7.37420118      -0.00080655      -0.00094275      -0.00117545
O        7.61842201       1.21997202       2.29900325      -7.84300308       0.00010765      -0.00047082       0.00109715
O        5.61412835       4.03767071       0.59845082      -7.98718350       0.00107469      -0.00047874      -0.00044709
O        5.16895710       2.52815526       2.91408743      -7.37101107       0.00486049       0.00123337       0.00237657
O        3.77760449       4.30626905       2.19011028      -8.97153086       0.00184072       0.00116717       0.00043407
O        1.79610032       4.40320270       0.25422212      -9.02069999       0.00045113      -0.00047965      -0.00015761
O        2.30143654       2.57912139       1.64311276      -7.09669587      -0.00133977       0.00479558      -0.00006141
O        7.54076970       4.00542860       2.38244414      -8.69014985      -0.00155073       0.00004912      -0.00024606
40
Lattice="7.68997860407897 -0.05328219956555894 0.095736140417804 -0.03582880345137532 7.220451992613955 0.182593473590671 -0.11843505187485126 0.014980613508713296 7.248191120030242" Properties=species:S:1:pos:R:3:energies:R:1:forces:R:3 energy=-324.9375424518066 free_energy=-324.9375424518066 stress="0.029071649924523966 -1.468570702910075e-06 7.717344149870205e-06 -1.468570702910075e-06 0.029063326291892934 4.535467414550939e-06 7.717344149870205e-06 4.535467414550939e-06 0.02909016385329227" pbc="T T T"
La       3.54690810       6.72742678       4.60713589      -9.45651976      -0.00177121      -0.00245315       0.00104684
La       7.24664540       6.66403113       4.39825854      -7.97535233       0.00063701      -0.00213566      -0.00144797
La       3.61120865       2.08478454       4.41908582      -9.21827607      -0.00185312       0.00389820      -0.00104880
La       3.57466108       6.52867890      -0.25575344      -8.22305704       0.00134863       0.00069922      -0.00293152
La       7.41155114       2.29943724       4.42913242      -7.89998594       0.00058603      -0.00080436      -0.00086208
La       7.41721831       6.62246937       0.27220976      -7.57725707       0.00040435      -0.00010864       0.00073912
La       3.80587969       1.99634644      -0.04377478      -6.98493847       0.00155292      -0.00484565      -0.00877721
La      -0.11564899       2.31329632      -0.06058291      -7.71394353       0.00350829       0.00324660       0.00291562
Mn       5.42415242       0.90634568       5.38543600      -5.18278875       0.00288995       0.00000583       0.00086551
Mn       1.54100772       0.91483599       5.85880677      -5.08580532       0.00333602      -0.00365970      -0.00642245
Mn       5.41795929       4.44465982       5.92760145      -7.34144792      -0.00061112       0.00025585      -0.00112539
Mn       1.40577076       4.47442194       5.84161126      -8.00367598      -0.00049960       0.00344017       0.00058752
Mn       5.22305823       0.86534765       1.83633060      -7.49981961      -0.00258239      -0.00116170      -0.00098053
Mn       1.64972813       0.88519512       2.17978452      -7.83698245       0.00040785       0.00033419      -0.00139622
Mn       5.00785062       4.48300333       2.30665557      -8.73783118      -0.00156083       0.00230589       0.00383430
Mn       1.96363653       4.49276504       2.23653166      -9.18709050       0.00003019       0.00259654      -0.00064379
O        5.02713575       0.63716378       3.60604628      -8.43693229       0.00155080       0.00127044       0.00251667
O        5.30063401       6.32519873       6.11061320      -8.52337904      -0.00046051      -0.00016819      -0.00016425
O        3.55393091       0.88538543       5.70423775      -8.73132290      -0.00015871       0.00407791       0.00768130
O        1.52985405       1.14583952       4.15822626      -8.66923899       0.00213419       0.00097568       0.00073146
O        1.46617602       6.44467700       5.73098853      -8.70727746      -0.00162629      -0.00310562      -0.00064620
O        7.20902726       0.77713408       5.82616999     -11.39320945      -0.00039560      -0.00013187       0.00201649
O        5.46233884       4.81029400       3.91252474      -7.21482333      -0.00051477       0.00131574      -0.00078930
O        5.48268882       2.70676821       5.76884612      -8.34866269       0.00046153      -0.00303524      -0.00146095
O        3.12330692       3.92869153       6.29636979      -8.48392039      -0.00037838      -0.00133557       0.00098097
O        1.47386569       4.01448797       3.83097061      -7.36314941       0.00081147      -0.00024973      -0.00086004
O        1.67501585       2.60241181       6.13499235      -8.34052825      -0.00270419       0.00252338       0.00143520
O        7.26084495       4.67792357       5.79586568      -9.00301691       0.00115761      -0.00052542       0.00026614
O        5.41666076       1.08338226       0.16848834      -7.35986061       0.00082824      -0.00000919       0.00054103
O        5.27355663       6.25514970       2.03371113      -7.47725771       0.00009697      -0.00205113       0.00057086
O        3.45333204       0.80153771       1.65848402      -9.49473446      -0.00010182      -0.00082708       0.00076960
O        1.70619282       0.61923139       0.25897389      -8.62404223      -0.00339159       0.00041000       0.00090468
O        1.61658855       6.09899538       2.52048409      -7.27498177      -0.00042594      -0.00176594       0.00073642
O        7.36175952       0.94189966       2.26383499      -8.41455458      -0.00102258       0.00142098       0.00024411
O        5.60396682       4.30030794       0.69212220      -7.51872929      -0.00025848      -0.00013773      -0.00077223
O        5.57929053       2.82943326       2.31694762      -7.45386271      -0.00057351      -0.00051054       0.00185253
O        3.49321503       5.38270126       2.24952483      -8.73015668      -0.00241763       0.00023733      -0.00000168
O        1.78906602       4.69347573       0.49926603      -7.22497320       0.00065050       0.00177683      -0.00152520
O        2.20165010       2.78489113       1.83193868      -7.45816897      -0.00148410      -0.00170747       0.00000802
O        7.34833566       4.57817515       2.41261711     -10.76598718       0.00239801      -0.00006105       0.00061323
40
Lattice="8.098382215580493 -0.013542514748202835 0.11293228131626358 0.01073861392435787 7.146470754979138 0.08356722624539223 -0.09982482184989806 -0.08341965358347017 7.145903403977484" Properties=species:S:1:pos:R:3:energies:R:1:forces:R:3 energy=-315.74917684381853 free_energy=-315.74917684381853 stress="-0.11914956465142257 -6.891105230921066e-06 1.8462952570334509e-06 -6.891105230921066e-06 -0.1191454985614407 -1.1761943672211623e-05 1.8462952570334509e-06 -1.1761943672211623e-05 -0.1191535942742297" pbc="T T T"
La       3.91889678       6.24093434       3.97021035      -7.90104474       0.00016498      -0.00099729       0.00001399
La       7.85775962       6.25198144       4.06160718      -7.94340909      -0.00041120      -0.00055133       0.00011821
La       3.65038199       2.59614915       3.95207506      -7.94336024      -0.00016075       0.00027195       0.00125901
La       3.70679553       6.30975084       0.34045272      -7.94319166       0.00193976      -0.00064642      -0.00079732
La       7.58995937       2.62604142       3.98943842      -7.90130788      -0.00009810       0.00059787      -0.00056488
La       7.64594277       6.26673745       0.41303242      -7.90116279      -0.00118066      -0.00004698       0.00091824
La       3.96362221       2.66411062       0.32967407      -7.90115787       0.00062621       0.00096578      -0.00027025
La      -0.19491135       2.65339649       0.23520959      -7.94339950      -0.00071483       0.00068321       0.00070121
Mn       5.72429999       0.83452784       5.70672644      -6.56100407       0.00057917      -0.00036850      -0.00007755
Mn       1.67512523       0.84125551       5.65042452      -6.82530385      -0.00087720       0.00279618      -0.00073281
Mn       5.72283588       4.40779355       5.74835431      -6.73430089      -0.00040775      -0.00161275       0.00030947
Mn       1.67709583       4.41446523       5.69207278      -7.06584644       0.00007016       0.00015341      -0.00128042
Mn       5.78110819       0.87619447       2.13386837      -6.73424809      -0.00082491       0.00014842      -0.00023218
Mn       1.72843629       0.88293715       2.07751116      -7.06590574       0.00007907      -0.00025481      -0.00020178
Mn       5.77960807       4.44941939       2.17551010      -6.73855019      -0.00056178       0.00030955       0.00015886
Mn       1.73039993       4.45622350       2.11918479      -7.25576082      -0.00040374       0.00011877      -0.00022855
O        5.78490558       0.51828512       3.87742601      -8.07164855      -0.00096797      -0.00034042       0.00022894
O        5.69213873       6.15120125       6.10594329      -8.07163980       0.00020786       0.00215097      -0.00107275
O        3.77201619       0.83771601       5.67954282      -8.79150336       0.00249377       0.00044590      -0.00020603
O        1.65745180       1.25019076       3.92311300      -7.99199429       0.00008435      -0.00001703      -0.00186851
O        1.73111052       6.26079698       5.32572654      -7.99213020       0.00063191      -0.00375101      -0.00041605
O        7.67658190       0.83126030       5.73413226      -8.79167126      -0.00180804      -0.00018536      -0.00075341
O        5.81283209       4.79080602       3.96299590      -8.07007755      -0.00012201       0.00053745      -0.00064272
O        5.69620845       2.66446628       5.39010905      -8.07185153      -0.00010575      -0.00118015       0.00106524
O        3.60020075       4.41140169       5.71887455      -8.65230225      -0.00366335      -0.00050315      -0.00010052
O        1.66094124       4.06085286       3.93601682      -7.88875698       0.00003904       0.00043673       0.00073850
O        1.71477173       2.56802770       6.05992446      -7.99185196       0.00071705       0.00163355      -0.00032919
O        7.84963465       4.40417439       5.77796522      -8.68305261       0.00391399       0.00030342       0.00072416
O        5.83461132       1.23407562       0.39109053      -8.07167291       0.00014291       0.00003122       0.00083307
O        5.72973292       6.23631782       1.83333342      -8.07002989      -0.00010195      -0.00020394       0.00089675
O        3.65423474       0.87981355       2.10430209      -8.68325194       0.00106065      -0.00031723       0.00007000
O        1.70775975       0.51588639       0.23061138      -7.99197131      -0.00082769      -0.00074962       0.00199209
O        1.77155596       6.27375612       2.51527706      -7.88833903      -0.00013347      -0.00067508      -0.00063128
O        7.90373074       0.87259548       2.16346272      -8.65248451      -0.00044745       0.00038741       0.00035860
O        5.86160852       4.10791128       0.38968548      -8.07011380      -0.00017016      -0.00134389       0.00092413
O        5.71425302       2.66274793       2.51616322      -8.06995630       0.00053870       0.00089392      -0.00043584
O        3.64815036       4.45293823       2.14586154      -8.52327416      -0.00136256       0.00027360       0.00018498
O        1.71269834       4.85165428       0.30109722      -7.88865350       0.00044753       0.00038816       0.00012995
O        1.77638614       2.63849313       1.72447825      -7.88874753      -0.00019217       0.00050314      -0.00032087
O        7.91102964       4.44591201       2.20554138      -8.52324776       0.00180688      -0.00028617      -0.00046270
40
Lattice="7.696435489297229 -0.1563924445568428 0.10863921534761385 -0.14093554820141327 7.696610589930144 0.08710916574845254 -0.10419187909121644 -0.08401954854635056 7.252930090172178" Properties=species:S:1:pos:R:3:energies:R:1:forces:R:3 energy=-317.29630329562696 free_energy=-317.29630329562696 stress="-0.15652730649593266 1.9501014492472653e-06 -5.038826382478102e-06 1.9501014492472653e-06 -0.15651756976028103 -1.2602028053830327e-06 -5.038826382478102e-06 -1.2602028053830327e-06 -0.15649774985081788" pbc="T T T"
La       3.38382351       6.63541770       4.01237397      -8.04991173      -0.00024595       0.00114376      -0.00032906
La       7.25930681       6.52973499       4.06702788      -8.04992293       0.00034948       0.00259203      -0.00115827
La       3.48128166       2.75989788       3.96897961      -8.04982202       0.00069000      -0.00061750       0.00061507
La       3.48779060       6.67515772       0.38675806      -8.05018596       0.00121146       0.00142074       0.00133189
La       7.30250091       2.70875954       4.02367242      -8.05011095       0.00084223      -0.00185868      -0.00201480
La       7.30892659       6.62414531       0.44123990      -8.04990298       0.00111101       0.00285720       0.00054409
La       3.53115983       2.85405074       0.34300388      -8.04983577       0.00065349      -0.00098469       0.00087892
La      -0.28970847       2.90555796       0.28886178      -8.05015544       0.00187055      -0.00521678       0.00057216
Mn       5.41385491       0.80143394       5.78766454      -7.05150347       0.00058653      -0.00081710       0.00150839
Mn       1.56547387       0.87984470       5.73388589      -7.05097805      -0.00094229       0.00059195      -0.00043839
Mn       5.34292359       4.64983175       5.83135907      -7.05106571       0.00274174       0.00246152       0.00020315
Mn       1.49497025       4.72818511       5.77710876      -7.05080454       0.00116343      -0.00017288       0.00328900
Mn       5.46561909       0.84403332       2.16116363      -7.05153038       0.00146208      -0.00062444       0.00201905
Mn       1.61744434       0.92197584       2.10738336      -7.05104908      -0.00073674       0.00031790      -0.00069605
Mn       5.39529198       4.69202089       2.20493196      -7.05122996       0.00040655       0.00041418       0.00236106
Mn       1.54699525       4.77036638       2.15083214      -7.05115236       0.00022876       0.00012133      -0.00243828
O        5.89171500       0.59020375       3.97861701      -8.08061707      -0.00262664       0.00077815       0.00200335
O        5.32224877       6.49577192       6.12909600      -8.23964816      -0.00144820       0.00037564       0.00043704
O        3.56853935       0.82590061       5.48702490      -8.24062909       0.00020698      -0.00098685      -0.00158162
O        1.36009167       1.35275650       3.92268807      -8.08125897      -0.00081705       0.00212807      -0.00093834
O        1.44595885       6.73048389       5.52480702      -8.24006297      -0.00078336       0.00018013      -0.00176421
O        7.25897742       0.77796599       6.09055653      -8.23956250      -0.00127403      -0.00176281       0.00011938
O        5.13820925       5.12372426       4.02043471      -8.08054326      -0.00014555      -0.00129614      -0.00075028
O        5.36422786       2.80379600       5.53528924      -8.24004941      -0.00027825       0.00174767      -0.00068292
O        3.34018353       4.70424498       6.07909091      -8.24017154      -0.00314899      -0.00119867       0.00124570
O        1.97275232       4.51680375       3.96796748      -8.08065390      -0.00153514       0.00183866      -0.00096015
O        1.54453454       2.72590927       6.03043237      -8.24020822      -0.00137236       0.00032383       0.00225085
O        7.34611901       4.59584761       5.58497011      -8.24036985      -0.00097291      -0.00062777      -0.00079385
O        5.04000526       1.09716268       0.34467048      -8.08055362       0.00027165      -0.00096439      -0.00348218
O        5.38208258       6.54443198       1.95144642      -8.24026285      -0.00088674       0.00051753      -0.00189190
O        3.61261576       0.86158954       2.41130739      -8.23923404      -0.00100409      -0.00028498       0.00096467
O        1.87455242       0.49068256       0.29249519      -8.08079831       0.00114260      -0.00046685      -0.00033032
O        1.48968412       6.76637985       2.44921593      -8.23997141       0.00038526      -0.00303236       0.00095471
O        7.31870989       0.82606514       1.91304166      -8.24075228       0.00272359       0.00099744      -0.00233510
O        5.65206822       4.26042710       0.39010620      -8.08080043       0.00047436       0.00124898       0.00058879
O        5.40865984       2.83989248       2.46056463      -8.23944365      -0.00120879      -0.00191255       0.00036456
O        3.40002577       4.75276068       1.90219821      -8.24056943       0.00292060      -0.00048460      -0.00051127
O        1.12163299       5.02382509       0.33397289      -8.08101289       0.00073921      -0.00139275       0.00064065
O        1.60428755       2.77427642       1.85298969      -8.23998205      -0.00042531       0.00115254       0.00065028
O        7.39048557       4.63135863       2.50914033      -8.23998607      -0.00232943       0.00149409      -0.00044598
40
Lattice="7.705602630319932 -0.09388802411699423 0.10995525854424971 -0.07677324501412575 7.7064195354842795 0.08950492082048123 -0.10891773770562048 -0.0860804584869201 7.481975509515231" Properties=species:S:1:pos:R:3:energies:R:1:forces:R:3 energy=-319.48518350077774 free_energy=-319.48518350077774 stress="-0.12463185736373686 -6.355145684954054e-07 -4.6381170359843215e-06 -6.355145684954054e-07 -0.1246341821461256 -4.859363990454245e-06 -4.6381170359843215e-06 -4.859363990454245e-06 -0.12465356444949204" pbc="T T T"
La       3.38139234       6.61188853       4.13644172      -8.08085292      -0.00089306      -0.00544848      -0.00061223
La       7.26121005       6.53565934       4.19177819      -8.07963715      -0.00533736       0.00644713      -0.00170521
La       3.44618389       2.73119692       4.09184595      -8.08098187       0.00234163       0.00113333       0.00054190
La       3.60920043       6.77345147       0.39996939      -8.08043972      -0.00033492       0.00313330      -0.00193430
La       7.27152401       2.71049680       4.14717053      -8.07973725       0.00098029      -0.00138534      -0.00108823
La       7.43472556       6.75414687       0.45478449      -8.08071508       0.00096197      -0.00108154      -0.00085807
La       3.62082217       2.94825221       0.35460033      -8.07995780       0.00153829      -0.00141991       0.00271863
La      -0.20485968       2.96770691       0.29990374      -8.08021854      -0.00006326      -0.00027862      -0.00054404
Mn       5.42455578       0.84629106       5.96955560      -7.30497462      -0.00020341      -0.00355066       0.00073973
Mn       1.57183722       0.89321722       5.91420508      -7.30287659      -0.00025651      -0.00102844       0.00243387
Mn       5.38655517       4.69942734       6.01448911      -7.30222047      -0.00293761       0.00173465       0.00049266
Mn       1.53370688       4.74654152       5.95909377      -7.30418131       0.00121870      -0.00050759       0.00137011
Mn       5.47897172       0.88901969       2.22853983      -7.30224476       0.00016649       0.00095862       0.00097205
Mn       1.62600214       0.93604945       2.17320918      -7.30470038       0.00065311       0.00007920       0.00011558
Mn       5.44098819       4.74213511       2.27353036      -7.30372481      -0.00465839       0.00081011       0.00042687
Mn       1.58795003       4.78909978       2.21800738      -7.30150980       0.00315265       0.00061395       0.00656672
O        5.85679348       0.61944094       4.10283216      -8.11591832       0.00032938      -0.00198555       0.00004054
O        5.52120901       6.54959664       6.35478000      -8.21893320      -0.00142588      -0.00224295      -0.00308699
O        3.57640386       0.71450642       5.62157536      -8.21674386       0.00080736      -0.00013574       0.00456647
O        1.35208744       1.31987337       4.04412427      -8.11552867      -0.00010909      -0.00050946       0.00262353
O        1.36057102       6.74958365       5.66292045      -8.21904822      -0.00069795       0.00191946       0.00130924
O        7.27269188       0.97880701       6.31699195      -8.21681825       0.00119183      -0.00245348      -0.00339479
O        5.16575955       5.12445716       4.14446057      -8.11626625       0.00367821       0.00470829      -0.00025776
O        5.25158972       2.84927912       5.67486631      -8.21988809      -0.00123653       0.00160402      -0.00286025
O        3.38179813       4.87911901       6.30624243      -8.21643797       0.00068509      -0.00369227      -0.00029781
O        1.96585659       4.52110670       4.09252286      -8.11573854      -0.00311160      -0.00231661      -0.00216917
O        1.70707968       2.74325978       6.25498618      -8.21930487      -0.00188773      -0.00140698      -0.00113076
O        7.39121454       4.51966662       5.72230252      -8.21697812      -0.00084640       0.00343043      -0.00002880
O        5.10070521       1.15782553       0.35441335      -8.11542550       0.00186266       0.00298015      -0.00187372
O        5.58441170       6.59885794       1.97919863      -8.21776917       0.00036977      -0.00233287       0.00265190
O        3.62060472       0.75120845       2.51690763      -8.21890859      -0.00113217      -0.00231383       0.00221121
O        1.89990695       0.55218589       0.30233738      -8.11543805       0.00205746       0.00090718      -0.00163332
O        1.40502130       6.78596703       2.55691785      -8.21730246       0.00270199       0.00082208       0.00310629
O        7.33711075       1.02748151       1.93951841      -8.21872782       0.00127960       0.00101380       0.00008955
O        5.71582410       4.36035792       0.40262937      -8.11635089      -0.00173854      -0.00540619      -0.00050181
O        5.29678999       2.88555987       2.56845804      -8.21726005       0.00167441       0.00239230      -0.00582458
O        3.44645222       4.92729929       1.92967501      -8.21888565      -0.00157243       0.00055710      -0.00093451
O        1.21102375       5.05865766       0.34411914      -8.11639731      -0.00156572       0.00124233      -0.00398098
O        1.77026725       2.79232483       1.87850947      -8.21715098       0.00019180       0.00218903       0.00030178
O        7.43520166       4.55652508       2.61690321      -8.21898962       0.00216559       0.00082047       0.00143870
40
Lattice="7.779556298225529 -0.06262522935849557 0.11148471030148553 -0.04445414418700517 7.780004572353793 0.08950971541649164 -0.11026612684571796 -0.08837884713709428 7.578753738378381" Properties=species:S:1:pos:R:3:energies:R:1:forces:R:3 energy=-320.8613722043915 free_energy=-320.8613722043915 stress="-0.06848238205920237 7.8375329153975e-06 -1.2856414085918046e-05 7.8375329153975e-06 -0.06848617008697695 4.445896752900403e-06 -1.2856414085918046e-05 4.445896752900403e-06 -0.06849639457109052" pbc="T T T"
La       3.42781011       6.67999820       4.18859823      -8.11179747       0.00081265       0.00175442       0.00202157
La       7.35038452       6.61499404       4.24516124      -8.11185374       0.00334686       0.00068188       0.00202074
La       3.48300896       2.75705724       4.14417892      -8.11174952      -0.00297805      -0.00380369      -0.00000191
La       3.68685342       6.86233454       0.40371786      -8.11205344       0.00019253      -0.00145215       0.00095982
La       7.33954496       2.75798119       4.19976577      -8.11161616      -0.00008630       0.00141969       0.00170430
La       7.54401318       6.86396958       0.45986194      -8.11163793       0.00180682      -0.00092150       0.00081124
La       3.67690003       3.00499127       0.35949723      -8.11196657      -0.00085325      -0.00008159      -0.00198956
La      -0.17969041       3.00334122       0.30357539      -8.11161587      -0.00003885       0.00355915      -0.00180157
Mn       5.48079892       0.87591914       6.04662755      -7.46133986      -0.00271852       0.00153878      -0.00387331
Mn       1.59092633       0.90729797       5.99085389      -7.46068165       0.00150746       0.00022389       0.00110135
Mn       5.45832549       4.76603517       6.09134875      -7.46103905       0.00619977      -0.00386965       0.00045608
Mn       1.56917380       4.79704739       6.03562080      -7.46162068      -0.00539419       0.00285995       0.00512203
Mn       5.53543227       0.92023375       2.25714715      -7.46117853       0.00395617      -0.00031029       0.00062299
Mn       1.64552276       0.95189863       2.20163257      -7.46175798       0.00360322      -0.00028191      -0.00051578
Mn       5.51350718       4.81020915       2.30204219      -7.46182329       0.00192953       0.00505478      -0.00533644
Mn       1.62370047       4.84204032       2.24659090      -7.46145804       0.00357186      -0.00266784      -0.00514598
O        5.91886318       0.65758049       4.15525981      -8.11664139       0.00109627       0.00307501      -0.00060395
O        5.62709594       6.63173613       6.43949597      -8.20935123       0.00131745      -0.00089007      -0.00101758
O        3.61587863       0.71129604       5.69313017      -8.20869592      -0.00200097      -0.00433553       0.00254706
O        1.37923944       1.34092568       4.09698400      -8.11625936       0.00173628       0.00055127       0.00457050